# vtk DataFile Version 3.0
vtk output
ASCII
DATASET STRUCTURED_GRID
DIMENSIONS 16 33 25
POINTS 13200 float
2.667 -3.77476 23.8329 2.94346 -3.74825 23.6656 3.21986 -3.72175 23.4982 
3.50007 -3.70204 23.3738 3.9116 -3.72708 23.5319 4.1656 -3.69529 23.3312 
4.35445 -3.70777 23.4099 4.65275 -3.72747 23.5343 4.95099 -3.74717 23.6587 
5.3086 -3.77079 23.8078 5.6388 -3.739 23.6071 5.80443 -3.75508 23.7087 
6.07929 -3.78177 23.8772 6.35411 -3.80845 24.0457 6.62889 -3.83513 24.2141 
6.90363 -3.86181 24.3825 2.667 -3.5406 23.8688 2.95309 -3.51863 23.6948 
3.24382 -3.49921 23.5215 3.55069 -3.48789 23.4266 3.9116 -3.49588 23.5673 
4.1656 -3.46606 23.3663 4.40602 -3.48054 23.4668 4.6864 -3.49776 23.5839 
4.98426 -3.51631 23.7083 5.3086 -3.53688 23.8437 5.6388 -3.50706 23.6427 
5.85324 -3.52803 23.7741 6.10055 -3.5523 23.9257 6.35966 -3.57776 24.0845 
6.62254 -3.60383 24.2456 6.88452 -3.63074 24.406 2.667 -3.3061 23.9024 
2.96162 -3.28827 23.7226 3.2617 -3.2733 23.5458 3.57501 -3.26437 23.4683 
3.9116 -3.26434 23.6005 4.1656 -3.2365 23.3992 4.42865 -3.25109 23.5093 
4.70831 -3.26704 23.6263 5.00178 -3.28419 23.749 5.3086 -3.30262 23.8773 
5.6388 -3.27478 23.676 5.8702 -3.2978 23.8178 6.11277 -3.32191 23.9664 
6.36377 -3.34671 24.1203 6.61896 -3.37198 24.2766 6.87454 -3.398 24.4332 
2.667 -3.07129 23.9337 2.96785 -3.05668 23.7497 3.27312 -3.04445 23.5713 
3.58705 -3.03624 23.5036 3.9116 -3.03249 23.6314 4.1656 -3.00663 23.4299 
4.43958 -3.02063 23.5447 4.72116 -3.03551 23.6627 5.01131 -3.05132 23.7841 
5.3086 -3.06805 23.9086 5.6388 -3.04219 23.707 5.87622 -3.06647 23.8524 
6.11818 -3.09093 24.0007 6.36534 -3.11539 24.1522 6.61618 -3.13974 24.306 
6.86847 -3.16427 24.4607 2.667 -2.83617 23.9627 2.97196 -2.82397 23.7759 
3.27998 -2.81354 23.5969 3.59323 -2.80571 23.5346 3.9116 -2.80035 23.66 
4.1656 -2.77647 23.4583 4.44513 -2.7896 23.5756 4.72838 -2.8034 23.6943 
5.01655 -2.81793 23.8152 5.3086 -2.83319 23.9375 5.6388 -2.80931 23.7357 
5.87779 -2.83483 23.882 6.11927 -2.85994 24.03 6.36435 -2.88428 24.1802 
6.61275 -2.90761 24.3327 6.86341 -2.93024 24.4867 2.667 -2.60079 23.9894 
2.97452 -2.59039 23.8009 3.28398 -2.58127 23.6216 3.59649 -2.57385 23.5624 
3.9116 -2.56794 23.6864 4.1656 -2.54604 23.4844 4.44803 -2.55817 23.603 
4.73236 -2.57086 23.7224 5.01942 -2.58415 23.8429 5.3086 -2.59805 23.9642 
5.6388 -2.57615 23.7622 5.87711 -2.60332 23.9079 6.11743 -2.62957 24.0551 
6.36086 -2.65413 24.2044 6.60771 -2.6764 24.356 6.85765 -2.69663 24.5099 
2.667 -2.36515 24.0138 2.97605 -2.35616 23.8243 3.28628 -2.34809 23.6449 
3.59826 -2.34119 23.5874 3.9116 -2.33528 23.7105 4.1656 -2.31536 23.5083 
4.44957 -2.32644 23.6276 4.73454 -2.338 23.7474 5.021 -2.35007 23.8678 
5.3086 -2.36266 23.9885 5.6388 -2.34274 23.7863 5.87491 -2.37227 23.9306 
6.11319 -2.40046 24.0763 6.35474 -2.42601 24.2244 6.60024 -2.44735 24.3754 
6.84999 -2.46425 24.5295 2.667 -2.12929 24.0359 2.97695 -2.12146 23.8458 
3.2876 -2.11432 23.6664 3.59923 -2.108 23.6097 3.9116 -2.10239 23.7323 
4.1656 -2.08446 23.5299 4.4504 -2.09445 23.6497 4.73572 -2.10487 23.7697 
5.02185 -2.11573 23.89 5.3086 -2.12704 24.0106 5.6388 -2.10911 23.8082 
5.8714 -2.14179 23.9501 6.10663 -2.17317 24.0938 6.34567 -2.20135 24.2402 
6.58939 -2.22256 24.3901 6.83923 -2.23399 24.5448 2.667 -1.89322 24.0556 
2.97747 -1.8864 23.8652 3.28835 -1.88012 23.6858 3.59978 -1.87444 23.6296 
3.9116 -1.8693 23.7518 4.1656 -1.85336 23.5492 4.45084 -1.86225 23.6693 
4.73637 -1.87151 23.7895 5.02232 -1.88117 23.9098 5.3086 -1.89122 24.0303 
5.6388 -1.87528 23.8277 5.86653 -1.91144 23.9665 6.0976 -1.94752 24.1074 
6.33339 -1.98173 24.2514 6.57395 -2.00634 24.3992 6.82351 -2.00645 24.5546 
2.667 -1.65696 24.073 2.97777 -1.65109 23.8825 3.28877 -1.64562 23.7031 
3.60008 -1.64062 23.6472 3.9116 -1.63603 23.769 4.1656 -1.62208 23.5662 
4.45108 -1.62986 23.6865 4.73672 -1.63797 23.8069 5.02257 -1.64642 23.9272 
5.3086 -1.65522 24.0477 5.6388 -1.64127 23.845 5.86023 -1.67976 23.9799 
6.08573 -1.72106 24.1173 6.31848 -1.76682 24.2587 6.55282 -1.80882 24.4015 
6.79867 -1.78015 24.5566 2.667 -1.42055 24.0882 2.97794 -1.41556 23.8975 
3.28901 -1.41089 23.7181 3.60025 -1.40658 23.6623 3.9116 -1.40261 23.7839 
4.1656 -1.39065 23.581 4.45121 -1.39732 23.7014 4.7369 -1.40427 23.8219 
5.02271 -1.41151 23.9423 5.3086 -1.41906 24.0628 5.6388 -1.40709 23.8599 
5.85267 -1.44434 23.9906 6.06861 -1.48678 24.1222 6.30417 -1.5429 24.2651 
6.5278 -1.65189 24.3972 6.75143 -1.5429 24.5433 2.667 -1.184 24.1009 
2.97804 -1.17986 23.9102 3.28915 -1.17598 23.7308 3.60035 -1.17238 23.6751 
3.9116 -1.16905 23.7965 4.1656 -1.15908 23.5935 4.45128 -1.16464 23.714 
4.73701 -1.17043 23.8345 5.02279 -1.17647 23.955 5.3086 -1.18276 24.0756 
5.6388 -1.17279 23.8726 5.84734 -1.2043 24.0005 6.04454 -1.23933 24.1212 
6.21153 -1.27978 24.2228 6.5278 -1.27978 24.4194 6.84407 -1.27978 24.616 
2.667 -0.947339 24.1114 2.97809 -0.944036 23.9207 3.28923 -0.940934 23.7413 
3.6004 -0.938048 23.6856 3.9116 -0.935372 23.8068 4.1656 -0.927395 23.6038 
4.45132 -0.931845 23.7243 4.73706 -0.936478 23.8449 5.02282 -0.941309 23.9655 
5.3086 -0.946341 24.086 5.6388 -0.938364 23.883 5.85701 -0.962149 24.0175 
6.07538 -0.987738 24.152 6.30417 -1.01666 24.2929 6.5278 -0.90767 24.4361 
6.75143 -1.01666 24.5708 2.667 -0.710584 24.1195 2.97812 -0.708112 23.9288 
3.28927 -0.705786 23.7494 3.60043 -0.703619 23.6937 3.9116 -0.701608 23.8149 
4.1656 -0.695624 23.6118 4.45134 -0.698961 23.7323 4.73709 -0.702436 23.853 
5.02285 -0.70606 23.9736 5.3086 -0.709836 24.0941 5.6388 -0.703852 23.891 
5.86449 -0.719403 24.0307 6.09137 -0.73285 24.1711 6.3224 -0.737448 24.3144 
6.55639 -0.718832 24.4604 6.80163 -0.750508 24.6116 2.667 -0.473761 24.1253 
2.97814 -0.472114 23.9346 3.28929 -0.470563 23.7552 3.60045 -0.469118 23.6995 
3.9116 -0.467776 23.8206 4.1656 -0.463787 23.6174 4.45135 -0.466011 23.7381 
4.7371 -0.468327 23.8587 5.02285 -0.470744 23.9793 5.3086 -0.473262 24.1 
5.6388 -0.469272 23.8968 5.87007 -0.479643 24.0401 6.10257 -0.48818 24.1843 
6.33811 -0.492324 24.3304 6.57804 -0.492103 24.4794 6.8262 -0.503228 24.6332 
2.667 -0.236892 24.1288 2.97814 -0.236068 23.9381 3.2893 -0.235292 23.7588 
3.60045 -0.234569 23.703 3.9116 -0.233899 23.824 4.1656 -0.231904 23.6209 
4.45135 -0.233016 23.7415 4.73711 -0.234173 23.8622 5.02286 -0.235382 23.9828 
5.3086 -0.236642 24.1034 5.6388 -0.234647 23.9002 5.87414 -0.24199 24.0462 
6.11062 -0.248184 24.1929 6.34962 -0.252273 24.3412 6.5925 -0.254923 24.492 
6.84088 -0.259543 24.6461 2.667 0 24.13 2.97814 1.62445e-06 23.9393 
3.2893 3.28051e-06 23.7599 3.60045 2.90155e-06 23.7042 3.9116 0 23.8252 
4.1656 0 23.622 4.45135 1.48066e-06 23.7426 4.7371 2.96146e-06 23.8633 
5.02286 2.58506e-06 23.9839 5.3086 0 24.1046 5.6388 0 23.9014 
5.87696 -0.00555869 24.0492 6.11614 -0.0103071 24.1976 6.35744 -0.0136691 24.3474 
6.60185 -0.0157685 24.4991 6.85016 -0.0172436 24.6532 2.667 0.236892 24.1288 
2.97814 0.236071 23.9381 3.28929 0.235298 23.7588 3.60044 0.234575 23.703 
3.9116 0.233899 23.824 4.1656 0.231904 23.6209 4.45135 0.233019 23.7415 
4.7371 0.234179 23.8622 5.02285 0.235387 23.9828 5.3086 0.236642 24.1034 
5.6388 0.234647 23.9002 5.87874 0.230049 24.0492 6.1196 0.22622 24.1987 
6.36228 0.223744 24.3494 6.60755 0.222881 24.5016 6.85585 0.223693 24.6557 
2.667 0.473761 24.1253 2.97813 0.472117 23.9346 3.28927 0.470569 23.7553 
3.60043 0.469123 23.6995 3.9116 0.467776 23.8206 4.1656 0.463787 23.6174 
4.45134 0.466014 23.7381 4.73709 0.468333 23.8587 5.02284 0.470748 23.9793 
5.3086 0.473262 24.1 5.6388 0.469272 23.8968 5.8796 0.464907 24.0463 
6.1213 0.461455 24.1964 6.36471 0.459655 24.3475 6.61045 0.460033 24.5001 
6.85881 0.462889 24.6542 2.667 0.710584 24.1195 2.97811 0.708114 23.9288 
3.28925 0.705791 23.7494 3.60041 0.703624 23.6937 3.9116 0.701608 23.8149 
4.1656 0.695624 23.6118 4.45133 0.698964 23.7323 4.73707 0.702441 23.8529 
5.02283 0.706064 23.9735 5.3086 0.709836 24.0941 5.6388 0.703852 23.891 
5.8796 0.698905 24.0407 6.12139 0.695146 24.1909 6.36499 0.693564 24.3421 
6.61096 0.694967 24.4948 6.85949 0.699823 24.649 2.667 0.947339 24.1114 
2.97808 0.944038 23.9207 3.2892 0.940938 23.7413 3.60038 0.938052 23.6856 
3.9116 0.935372 23.8068 4.1656 0.927395 23.6038 4.4513 0.931847 23.7243 
4.73703 0.936482 23.8449 5.0228 0.941313 23.9655 5.3086 0.946341 24.086 
5.6388 0.938364 23.883 5.87868 0.93183 24.0322 6.11981 0.926851 24.1821 
6.36313 0.924778 24.3333 6.60918 0.926854 24.486 6.85806 0.933813 24.6404 
2.667 1.184 24.1009 2.97802 1.17986 23.9103 3.28911 1.17598 23.7308 
3.60032 1.17238 23.6751 3.9116 1.16905 23.7965 4.1656 1.15908 23.5935 
4.45126 1.16464 23.714 4.73697 1.17043 23.8345 5.02276 1.17647 23.955 
5.3086 1.18276 24.0756 5.6388 1.17279 23.8726 5.87667 1.16342 24.0208 
6.1163 1.156 24.17 6.35886 1.15236 24.3209 6.60497 1.15455 24.4737 
6.85451 1.16396 24.6283 2.667 1.42055 24.0882 2.97792 1.41556 23.8975 
3.28898 1.41089 23.7181 3.60022 1.40658 23.6623 3.9116 1.40261 23.7839 
4.1656 1.39065 23.581 4.45119 1.39732 23.7014 4.73687 1.40427 23.8218 
5.02268 1.41151 23.9423 5.3086 1.41906 24.0628 5.6388 1.40709 23.8599 
5.87322 1.39351 24.0064 6.11029 1.38203 24.1544 6.35162 1.37505 24.3048 
6.59793 1.37631 24.4578 6.84875 1.3891 24.613 2.667 1.65696 24.073 
2.97775 1.65109 23.8825 3.28873 1.64562 23.7031 3.60005 1.64062 23.6471 
3.9116 1.63603 23.769 4.1656 1.62208 23.5662 4.45106 1.62986 23.6865 
4.73668 1.63797 23.8068 5.02254 1.64642 23.9272 5.3086 1.65522 24.0477 
5.6388 1.64127 23.845 5.86781 1.62231 23.9886 6.10086 1.60477 24.1347 
6.3404 1.59141 24.2845 6.5874 1.58924 24.4383 6.84062 1.60783 24.5946 
2.667 1.89322 24.0556 2.97745 1.8864 23.8652 3.2883 1.88012 23.6858 
3.59974 1.87444 23.6296 3.9116 1.8693 23.7518 4.1656 1.85336 23.5492 
4.45082 1.86225 23.6693 4.73633 1.87151 23.7895 5.02229 1.88117 23.9098 
5.3086 1.89122 24.0303 5.6388 1.87528 23.8277 5.85974 1.85106 23.967 
6.08653 1.8256 24.11 6.32352 1.80057 24.2594 6.57253 1.78801 24.4153 
6.83002 1.81897 24.5732 2.667 2.12929 24.0359 2.97693 2.12146 23.8458 
[...]
POINT_DATA 13200
SCALARS Density float
LOOKUP_TABLE default
0.498983 0.376668 0.333115 0.311612 0.267114 0.639897 0.479756 0.477011 0.461867 
0.428373 0.639897 0.608989 0.570884 0.510595 0.443823 0.407467 0.480383 0.320869 
0.293328 0.263746 0.442123 0.539536 0.436191 0.426753 0.410546 0.520346 0.603812 
0.548186 0.497734 0.446365 0.411812 0.383622 0.464504 0.289111 0.267902 0.243983 
0.434571 0.528325 0.414677 0.406665 0.391739 0.511322 0.591683 0.528475 0.486712 
0.442924 0.412559 0.3854 0.449472 0.259047 0.244298 0.228457 0.429995 0.519683 
0.397323 0.390273 0.378815 0.506079 0.583424 0.518264 0.489518 0.450696 0.420042 
0.393872 0.437303 0.234709 0.226816 0.219303 0.428248 0.513012 0.384511 0.379601 
0.37173 0.503526 0.577575 0.512009 0.494622 0.459136 0.427264 0.402332 0.430783 
0.221669 0.220168 0.217833 0.428682 0.509648 0.37806 0.373961 0.367559 0.501907 
0.571103 0.501577 0.489608 0.458493 0.428811 0.405164 0.429468 0.219039 0.221802 
0.22084 0.430107 0.507089 0.37172 0.365126 0.356807 0.496209 0.554013 0.467402 
0.459435 0.440417 0.419086 0.397601 0.431702 0.223506 0.227542 0.225205 0.431845 
0.502379 0.359791 0.34818 0.335842 0.484971 0.535859 0.430179 0.425741 0.41778 
0.404712 0.387909 0.436862 0.233828 0.235323 0.230224 0.433858 0.49454 0.341903 
0.326734 0.312104 0.472631 0.524836 0.408344 0.41131 0.418514 0.41389 0.39744 
0.444066 0.248235 0.243882 0.235825 0.436104 0.486214 0.324241 0.3081 0.293613 
0.463437 0.516377 0.395832 0.440521 0.509908 0.518672 0.451949 0.449245 0.258594 
0.250346 0.240378 0.438001 0.480891 0.313256 0.296927 0.283075 0.45841 0.510944 
0.402649 0.507403 0.615068 0.623987 0.505219 0.450897 0.261898 0.253245 0.242723 
0.439077 0.478263 0.30797 0.291713 0.278182 0.456073 0.506172 0.397768 0.524433 
0.632836 0.639897 0.511187 0.451586 0.263275 0.254235 0.243595 0.43951 0.476704 
0.305005 0.289081 0.275835 0.454953 0.501923 0.373583 0.44157 0.504738 0.502615 
0.422466 0.450561 0.261225 0.252547 0.242481 0.439081 0.476522 0.304598 0.288618 
0.275459 0.454815 0.499573 0.35916 0.362185 0.361261 0.347021 0.32713 0.447619 
0.255341 0.248141 0.239343 0.437778 0.478139 0.30756 0.291028 0.277598 0.455888 
0.500235 0.356314 0.347437 0.337116 0.325125 0.311855 0.444357 0.248816 0.243098 
0.235545 0.43617 0.481033 0.313118 0.296043 0.282074 0.458014 0.503792 0.362419 
0.35096 0.337945 0.32447 0.310733 0.441161 0.242425 0.238285 0.231801 0.434525 
0.484838 0.320525 0.303041 0.288536 0.46108 0.509103 0.373172 0.361353 0.347465 
0.332633 0.317266 0.43793 0.235964 0.233759 0.228281 0.432944 0.489479 0.329705 
0.31169 0.296539 0.464972 0.514822 0.385317 0.374158 0.359616 0.343649 0.326556 
0.434614 0.229331 0.229458 0.225001 0.431486 0.494593 0.340256 0.322221 0.306171 
0.46951 0.52153 0.398607 0.387258 0.372237 0.354903 0.336037 0.431586 0.223275 
0.225446 0.221932 0.43012 0.49956 0.350896 0.333683 0.317431 0.474981 0.528825 
0.412957 0.400509 0.384144 0.365214 0.344495 0.429457 0.219017 0.221704 0.219074 
0.428857 0.503559 0.36019 0.344914 0.329366 0.480981 0.535274 0.426068 0.41328 
0.394754 0.37367 0.351088 0.429601 0.219304 0.219095 0.216495 0.427731 0.505505 
0.366333 0.354501 0.340542 0.486767 0.54403 0.440042 0.423528 0.403335 0.379877 
0.355284 0.43779 0.235683 0.224821 0.215958 0.426991 0.506205 0.370424 0.363422 
0.352466 0.493159 0.558821 0.463435 0.436415 0.411336 0.38584 0.35884 0.468621 
0.297344 0.266482 0.234368 0.430067 0.51166 0.383554 0.381638 0.374367 0.50452 
0.582692 0.509886 0.476461 0.438088 0.40216 0.371227 0.514002 0.388107 0.347472 
0.296396 0.45311 0.537995 0.436595 0.433802 0.419545 0.524241 0.61557 0.581853 
0.565466 0.543807 0.496042 0.427096 0.559502 0.479107 0.426735 0.371401 0.491152 
0.583448 0.520656 0.501682 0.463504 0.538929 0.636112 0.63009 0.630227 0.632237 
0.607179 0.505609 0.594418 0.548939 0.487366 0.426098 0.519364 0.616169 0.576988 
0.539697 0.481126 0.542144 0.638639 0.63738 0.63738 0.638009 0.638639 0.549892 
0.600716 0.561535 0.505868 0.447219 0.529522 0.630324 0.603859 0.563984 0.504203 
0.553651 0.638639 0.63738 0.63738 0.638639 0.639897 0.565702 0.57799 0.516083 
0.464785 0.425771 0.523105 0.636116 0.619908 0.588183 0.537833 0.57334 0.638639 
0.63738 0.63738 0.638009 0.638638 0.576992 0.546455 0.453013 0.415009 0.389101 
0.506935 0.628742 0.61246 0.593594 0.554482 0.584502 0.638639 0.63738 0.63738 
0.63738 0.626587 0.559421 0.525367 0.410838 0.38151 0.352369 0.486776 0.608984 
0.579496 0.572623 0.54297 0.580756 0.638639 0.63738 0.635037 0.618327 0.568928 
0.488761 0.51215 0.384402 0.351826 0.318884 0.468243 0.584992 0.532642 0.528092 
0.498865 0.558321 0.637996 0.62755 0.602453 0.550346 0.479464 0.420193 0.509572 
0.376668 0.333115 0.311612 0.267114 0.639897 0.479756 0.477011 0.461867 0.428373 
0.639897 0.608989 0.570884 0.510595 0.443823 0.407467 0.639897 0.365979 0.313944 
0.274329 0.310323 0.367542 0.368533 0.362733 0.348782 0.388138 0.435462 0.424559 
0.399611 0.365847 0.336417 0.315531 0.639897 0.336214 0.290748 0.256985 0.291327 
0.34297 0.342074 0.335983 0.326219 0.36563 0.408836 0.396649 0.370216 0.342666 
0.323128 0.306755 0.639897 0.308557 0.271245 0.244306 0.280644 0.329913 0.328755 
0.323504 0.31454 0.351273 0.392937 0.384603 0.36252 0.338947 0.321881 0.306435 
0.639897 0.283213 0.254656 0.235119 0.273433 0.320322 0.319025 0.314411 0.307409 
0.343427 0.383994 0.379827 0.364306 0.343215 0.325968 0.310942 0.639897 0.261856 
0.242675 0.229964 0.269395 0.31355 0.312361 0.30895 0.303963 0.339979 0.3795 
0.378165 0.368306 0.348773 0.330694 0.316019 0.639897 0.247852 0.237652 0.229428 
0.268715 0.310658 0.309242 0.306324 0.302236 0.337055 0.374566 0.374243 0.367012 
0.349523 0.332391 0.318213 0.639897 0.240991 0.238078 0.231829 0.269441 0.308894 
0.306144 0.301907 0.296851 0.325998 0.357613 0.35669 0.351569 0.340546 0.327974 
0.315074 0.639897 0.241492 0.242317 0.235777 0.269872 0.305239 0.300007 0.292999 
0.285699 0.310129 0.337577 0.336155 0.334912 0.33304 0.32676 0.316186 0.639897 
0.253386 0.250187 0.241285 0.26999 0.299235 0.290981 0.281766 0.272946 0.296839 
0.324298 0.325074 0.337376 0.356776 0.359887 0.345301 0.639897 0.271416 0.260319 
0.248161 0.270501 0.293135 0.282541 0.272316 0.26319 0.287051 0.314731 0.324924 
0.380359 0.463539 0.477052 0.413635 0.639897 0.28265 0.268286 0.254125 0.271586 
0.289529 0.27783 0.267072 0.257931 0.281797 0.310068 0.341277 0.464112 0.588981 
0.600594 0.484744 0.639897 0.285991 0.271906 0.257395 0.272486 0.28802 0.275933 
0.264943 0.255743 0.27853 0.30551 0.340796 0.483056 0.613756 0.623481 0.491889 
0.639897 0.286686 0.27273 0.258393 0.272531 0.286927 0.274779 0.263871 0.254751 
0.275701 0.299764 0.315379 0.394394 0.479112 0.478133 0.391787 0.639897 0.283404 
0.270038 0.256662 0.271577 0.286399 0.274402 0.263569 0.25456 0.274303 0.296489 
0.297803 0.314329 0.328541 0.316823 0.293708 0.639897 0.276804 0.264419 0.252557 
0.270121 0.287095 0.275318 0.264453 0.255486 0.275125 0.296906 0.293022 0.290528 
0.287479 0.280005 0.270072 0.639897 0.270457 0.258328 0.247707 0.268624 0.288644 
0.277309 0.266481 0.257463 0.277715 0.30029 0.295585 0.289114 0.281893 0.274073 
0.265934 0.639897 0.264736 0.252636 0.242892 0.267348 0.290856 0.2801 0.269409 
0.260364 0.281456 0.305357 0.301172 0.294325 0.286364 0.277896 0.26917 0.639897 
0.259431 0.247551 0.238378 0.266384 0.293725 0.283755 0.273133 0.264006 0.285953 
0.31102 0.30756 0.301121 0.292841 0.283803 0.274215 0.639897 0.254145 0.243071 
0.234275 0.265653 0.296967 0.288188 0.27786 0.26851 0.291363 0.317792 0.314595 
0.308134 0.299639 0.289896 0.279368 0.639897 0.249005 0.239271 0.23067 0.264937 
0.300061 0.292842 0.28321 0.273966 0.297679 0.325299 0.322278 0.315299 0.306096 
0.295497 0.283981 0.639897 0.245108 0.23625 0.227683 0.263924 0.302319 0.297201 
0.288753 0.280006 0.304163 0.332273 0.329501 0.32233 0.31197 0.300188 0.287633 
0.639897 0.245047 0.234887 0.22562 0.263063 0.303726 0.300747 0.294068 0.286152 
0.312205 0.342045 0.337537 0.328444 0.317138 0.303991 0.290249 0.639897 0.257514 
0.240423 0.226249 0.263496 0.305671 0.304594 0.300213 0.293661 0.324228 0.358472 
0.351108 0.336807 0.323087 0.308707 0.29339 0.639897 0.302186 0.2704 0.240667 
0.271208 0.315102 0.315578 0.313345 0.308119 0.345268 0.385871 0.378228 0.362471 
0.344167 0.324745 0.305745 0.639897 0.374981 0.331495 0.285881 0.306765 0.351341 
0.350756 0.347004 0.337063 0.378126 0.42552 0.424467 0.428988 0.431086 0.407086 
0.360453 0.639897 0.465358 0.404621 0.350442 0.370496 0.413537 0.405089 0.391277 
0.36752 0.402395 0.45564 0.475619 0.521115 0.561299 0.54794 0.4576 0.639897 
0.544918 0.471283 0.406928 0.428267 0.467254 0.447986 0.422402 0.386202 0.41223 
0.475139 0.536125 0.602075 0.629747 0.628443 0.528044 0.639897 0.556988 0.486964 
0.425523 0.450509 0.49291 0.473171 0.445335 0.407398 0.426277 0.491066 0.57592 
0.63738 0.63738 0.63738 0.549252 0.639897 0.505177 0.440634 0.397166 0.436268 
0.493113 0.482415 0.460971 0.428949 0.441487 0.491286 0.567633 0.631754 0.63738 
0.63738 0.556102 0.639897 0.447002 0.391748 0.355288 0.403981 0.471802 0.470346 
0.458196 0.43415 0.446508 0.48263 0.530237 0.591058 0.613812 0.594887 0.51183 
0.639897 0.41227 0.361573 0.321311 0.36755 0.436652 0.441055 0.436148 0.41861 
0.437319 0.471683 0.48845 0.519858 0.531206 0.488426 0.416363 0.639897 0.390702 
0.337524 0.295352 0.336189 0.400609 0.404935 0.401429 0.384784 0.415098 0.458506 
0.458457 0.452499 0.428035 0.385688 0.345353 0.639897 0.365979 0.313944 0.274329 
0.310323 0.367542 0.368533 0.362733 0.348782 0.388138 0.435462 0.424559 0.399611 
0.365847 0.336417 0.315531 0.639897 0.428449 0.318504 0.262202 0.244495 0.244165 
0.2426 0.240045 0.237365 0.237833 0.240357 0.241981 0.243835 0.24352 0.239499 
0.2334 0.639897 0.406326 0.301779 0.254827 0.240627 0.239635 0.237443 0.234503 
0.231579 0.231122 0.23211 0.231576 0.230258 0.228172 0.225325 0.222133 0.639897 
0.379768 0.288452 0.251304 0.240052 0.238825 0.236305 0.233177 0.230092 0.229435 
0.230033 0.228931 0.227051 0.224703 0.222115 0.219503 0.639897 0.359483 0.281089 
0.251306 0.241605 0.239885 0.237043 0.233737 0.230587 0.23005 0.230831 0.229702 
0.227637 0.225101 0.222356 0.219616 0.639897 0.345535 0.277933 0.253201 0.244165 
0.241701 0.238449 0.234922 0.231724 0.231427 0.232652 0.23172 0.229511 0.22674 
0.223668 0.220578 0.639897 0.336815 0.278021 0.256128 0.246948 0.243574 0.239836 
0.236068 0.232811 0.23265 0.234193 0.233422 0.231071 0.228133 0.224914 0.221669 
0.639897 0.333599 0.279876 0.259277 0.249492 0.245117 0.240801 0.236698 0.23325 
0.232827 0.234091 0.233157 0.231028 0.228892 0.226506 0.223723 0.639897 0.33622 
0.282715 0.26274 0.252122 0.246528 0.241422 0.236807 0.232926 0.2318 0.232262 
0.231443 0.232741 0.237049 0.239189 0.23693 0.639897 0.33676 0.287652 0.268079 
0.256072 0.248771 0.242463 0.237031 0.232482 0.230469 0.230216 0.232577 0.250324 
0.279108 0.29194 0.283329 0.639897 0.334378 0.296646 0.276381 0.262004 0.252371 
0.244459 0.237943 0.232615 0.229759 0.229525 0.243581 0.29991 0.381882 0.402937 
0.360096 0.639897 0.336562 0.305764 0.284444 0.267981 0.256274 0.246957 0.239464 
0.233407 0.229853 0.230913 0.264825 0.380411 0.518156 0.551124 0.45128 0.639897 
0.339354 0.310352 0.288982 0.271775 0.259065 0.248992 0.240898 0.234369 0.230279 
0.231296 0.26883 0.398852 0.565449 0.595108 0.457816 0.639897 0.338435 0.310886 
0.290094 0.273014 0.260138 0.249907 0.241648 0.234981 0.230574 0.229553 0.248733 
0.327092 0.440243 0.444938 0.351864 0.639897 0.333037 0.305882 0.286922 0.271266 
0.259253 0.249528 0.241562 0.235075 0.230654 0.228335 0.232087 0.259427 0.291373 
0.287852 0.262562 0.639897 0.32649 0.297255 0.280484 0.26708 0.256758 0.248068 
0.24076 0.234714 0.230538 0.227902 0.226269 0.229781 0.235347 0.234176 0.227754 
0.639897 0.322817 0.288962 0.273333 0.26192 0.2534 0.245925 0.239442 0.233963 
0.230204 0.227731 0.22522 0.22327 0.221932 0.220066 0.217558 0.639897 0.322292 
0.281583 0.26612 0.256393 0.24961 0.243374 0.237773 0.232914 0.229675 0.227565 
0.225208 0.222808 0.220547 0.218378 0.216283 0.639897 0.325401 0.27585 0.259351 
0.250832 0.245628 0.240602 0.235872 0.231641 0.228985 0.227327 0.225243 0.223027 
0.22079 0.218604 0.216545 0.639897 0.331649 0.272556 0.253552 0.245581 0.241693 
0.237784 0.233876 0.230271 0.228194 0.227027 0.225257 0.223244 0.221124 0.218983 
0.216924 0.639897 0.341389 0.272436 0.249222 0.241026 0.238133 0.235137 0.231967 
0.228936 0.227423 0.226773 0.225312 0.223453 0.221401 0.219309 0.21727 0.639897 
0.356077 0.276189 0.246996 0.237633 0.235365 0.233019 0.230415 0.227835 0.226861 
0.226707 0.225481 0.223747 0.221753 0.219673 0.21761 0.639897 0.372679 0.284271 
0.247686 0.236072 0.234053 0.232043 0.229688 0.22738 0.226844 0.227124 0.226107 
0.224509 0.22259 0.220474 0.218318 0.639897 0.391463 0.297793 0.252881 0.237577 
0.235207 0.23316 0.23069 0.228337 0.228024 0.228674 0.227947 0.226772 0.225325 
0.223316 0.220869 0.639897 0.418073 0.321704 0.267168 0.245573 0.241347 0.238458 
0.235239 0.232227 0.231723 0.232616 0.23309 0.23543 0.238283 0.237615 0.232964 
0.639897 0.463816 0.371445 0.300859 0.268002 0.257511 0.251323 0.245769 0.240866 
0.239217 0.240676 0.249446 0.272209 0.296194 0.299445 0.281358 0.639897 0.529208 
0.439982 0.356418 0.311818 0.288509 0.274417 0.26366 0.254925 0.250501 0.257039 
0.29651 0.371874 0.439447 0.442232 0.380595 0.639897 0.584259 0.504122 0.417089 
0.364111 0.330733 0.307275 0.289262 0.274807 0.266239 0.289289 0.391553 0.519154 
0.586495 0.586297 0.484218 0.639897 0.586845 0.507592 0.426763 0.381704 0.354672 
0.331576 0.311817 0.294696 0.283539 0.320152 0.469612 0.608372 0.63738 0.63738 
0.530033 0.639897 0.535543 0.440095 0.37623 0.348204 0.338037 0.326013 0.313489 
0.300737 0.292007 0.323159 0.461291 0.601771 0.63738 0.633511 0.528901 0.639897 
0.48059 0.379982 0.323241 0.301993 0.303108 0.300338 0.295386 0.289049 0.286231 
0.305057 0.391013 0.512483 0.572986 0.552407 0.459204 0.639897 0.450941 0.350834 
0.290545 0.27072 0.274017 0.273997 0.271752 0.268683 0.270034 0.280625 0.316254 
0.379187 0.421934 0.400127 0.345409 0.639897 0.439021 0.333675 0.272894 0.253286 
0.254762 0.254279 0.252183 0.249686 0.251442 0.25707 0.267886 0.285607 0.295492 
0.287929 0.269694 0.639897 0.428449 0.318504 0.262202 0.244495 0.244165 0.2426 
0.240045 0.237365 0.237833 0.240358 0.241982 0.243835 0.24352 0.239499 0.2334 
0.639897 0.365026 0.286539 0.25037 0.2354 0.229667 0.226439 0.224047 0.222163 
0.221348 0.221832 0.22429 0.229602 0.234709 0.235604 0.232044 0.639897 0.355038 
0.279734 0.249904 0.237985 0.232483 0.228581 0.225284 0.222428 0.220318 0.218949 
0.218119 0.217908 0.217819 0.217071 0.215439 0.639897 0.341749 0.277011 0.25371 
0.243702 0.23801 0.233218 0.228957 0.225202 0.2222 0.219847 0.21782 0.216122 
0.21462 0.213132 0.211538 0.639897 0.335564 0.280197 0.260994 0.251194 0.244446 
0.238415 0.233065 0.228402 0.224639 0.221616 0.218962 0.216671 0.214639 0.212745 
0.21092 0.639897 0.336661 0.287448 0.270005 0.259082 0.250537 0.24298 0.236443 
0.230901 0.22646 0.222909 0.219862 0.217234 0.21491 0.212783 0.210797 0.639897 
0.342911 0.296976 0.278963 0.2659 0.25523 0.24613 0.238527 0.232283 0.227326 
0.223418 0.220161 0.217378 0.214988 0.2129 0.210999 0.639897 0.352984 0.305956 
0.285851 0.270516 0.258056 0.247781 0.239432 0.232721 0.227444 0.223349 0.220019 
0.217426 0.215747 0.214624 0.213445 0.639897 0.36257 0.311609 0.290136 0.273384 
0.259816 0.248757 0.23988 0.232797 0.227274 0.223075 0.21997 0.21954 0.222804 
0.22628 0.226621 0.639897 0.360698 0.316748 0.295393 0.277307 0.262426 0.2503 
0.240668 0.233073 0.227225 0.223044 0.221788 0.23219 0.254297 0.268784 0.266648 
0.639897 0.359341 0.32892 0.305545 0.284303 0.266826 0.252904 0.242131 0.233816 
0.227557 0.223819 0.229507 0.267259 0.326775 0.352566 0.333489 0.639897 0.367427 
0.341936 0.315674 0.291393 0.271436 0.255821 0.243952 0.234929 0.22829 0.225488 
0.242741 0.318756 0.44565 0.497102 0.420165 0.639897 0.372089 0.347533 0.320727 
0.295498 0.274487 0.258031 0.245506 0.236027 0.229104 0.226486 0.246554 0.334204 
0.505283 0.554402 0.42921 0.639897 0.371144 0.348002 0.321795 0.296741 0.275641 
0.259055 0.246371 0.23676 0.22968 0.226026 0.236415 0.294147 0.407059 0.424341 
0.342434 0.639897 0.358965 0.33942 0.316831 0.294194 0.274492 0.258683 0.246406 
0.237002 0.229958 0.22534 0.226207 0.247883 0.282847 0.289861 0.268289 0.639897 
0.342603 0.325173 0.307462 0.2886 0.271396 0.257104 0.245696 0.23678 0.22996 
0.225 0.221878 0.22461 0.232204 0.234388 0.228913 0.639897 0.331952 0.312119 
0.297692 0.282061 0.267353 0.254747 0.244407 0.236143 0.22968 0.224752 0.220869 
0.218302 0.217242 0.21607 0.213772 0.639897 0.324629 0.299417 0.287339 0.274769 
0.262607 0.251791 0.242634 0.235115 0.22911 0.224395 0.220557 0.217354 0.21474 
0.212493 0.21038 0.639897 0.322057 0.288226 0.276845 0.266885 0.257187 0.24823 
0.240356 0.233677 0.228232 0.223851 0.22021 0.217135 0.214455 0.212068 0.209949 
0.639897 0.324684 0.280097 0.26722 0.25893 0.251302 0.244098 0.237549 0.231814 
0.227017 0.223057 0.219701 0.216843 0.214313 0.212016 0.209961 0.639897 0.333111 
0.27613 0.259358 0.251456 0.24532 0.239614 0.234318 0.229537 0.225442 0.221991 
0.218991 0.216384 0.214059 0.211933 0.210008 0.639897 0.34815 0.277108 0.254089 
0.245072 0.23969 0.235116 0.230889 0.226984 0.22358 0.220666 0.218078 0.215796 
0.213735 0.211849 0.210097 0.639897 0.36549 0.28337 0.252378 0.240624 0.235089 
0.231123 0.227645 0.224459 0.221665 0.219259 0.217114 0.215254 0.213592 0.212049 
0.210537 0.639897 0.383323 0.295448 0.255951 0.23959 0.232597 0.228524 0.225328 
0.222544 0.220185 0.218223 0.216637 0.215557 0.214836 0.214055 0.212867 0.639897 
0.405947 0.318012 0.269436 0.245533 0.234577 0.229038 0.225294 0.222382 0.220094 
0.218485 0.218308 0.220494 0.224079 0.22593 0.224361 0.639897 0.473367 0.376717 
0.307027 0.267824 0.246738 0.236322 0.230101 0.225921 0.222948 0.221955 0.228412 
0.245718 0.265586 0.273021 0.264285 0.639897 0.549212 0.451407 0.366732 0.31411 
0.277597 0.256877 0.244281 0.236216 0.23087 0.233188 0.262444 0.315334 0.364612 
0.373711 0.340283 0.639897 0.593603 0.516754 0.431369 0.370666 0.325024 0.293024 
0.270939 0.255754 0.245891 0.258084 0.327002 0.440588 0.524566 0.529338 0.444351 
0.639897 0.612656 0.538366 0.45202 0.395286 0.355897 0.323241 0.297534 0.27776 
0.264154 0.285314 0.389344 0.543068 0.628182 0.62893 0.514973 0.639897 0.53016 
0.456739 0.394403 0.357537 0.335008 0.314906 0.297778 0.283285 0.272227 0.293077 
0.393598 0.549195 0.633435 0.62658 0.517676 0.639897 0.422587 0.358362 0.319107 
0.295349 0.285347 0.277558 0.271375 0.266254 0.262899 0.278152 0.34524 0.463065 
0.545868 0.536791 0.453506 0.639897 0.382177 0.315034 0.275588 0.255556 0.249069 
0.24576 0.243915 0.243058 0.244483 0.253504 0.288584 0.34763 0.395295 0.39385 
0.354518 0.639897 0.368895 0.295746 0.256577 0.238923 0.233055 0.23031 0.228692 
0.22782 0.228835 0.232764 0.245384 0.268886 0.288463 0.290653 0.277762 0.639897 
0.365026 0.286539 0.25037 0.2354 0.229667 0.226439 0.224047 0.222163 0.221348 
0.221832 0.224291 0.229603 0.23471 0.235604 0.232044 0.639897 0.240368 0.237412 
0.235229 0.233039 0.230988 0.228403 0.225828 0.223548 0.222233 0.222285 0.224883 
0.231955 0.240638 0.245215 0.243625 0.639897 0.241849 0.243281 0.242974 0.240754 
0.23781 0.233829 0.229712 0.225872 0.222818 0.220658 0.219311 0.219218 0.220015 
0.220385 0.219423 0.639897 0.248754 0.255093 0.255617 0.252369 0.247771 0.241893 
0.236011 0.230641 0.2262 0.222639 0.219665 0.21733 0.215524 0.213926 0.212244 
0.639897 0.261411 0.271661 0.271338 0.265714 0.258415 0.250078 0.242157 0.235193 
0.229472 0.22484 0.220967 0.217779 0.215108 0.212753 0.210561 0.639897 0.279758 
0.291638 0.288248 0.278765 0.267747 0.256509 0.246439 0.237965 0.231134 0.225669 
0.221245 0.21766 0.214658 0.212047 0.209708 0.639897 0.302659 0.312554 0.303776 
0.289181 0.273967 0.259883 0.248016 0.238481 0.230955 0.225045 0.22042 0.216747 
0.213761 0.211301 0.209227 0.639897 0.326192 0.330143 0.314601 0.294827 0.276119 