# vtk DataFile Version 3.0
vtk output
ASCII
DATASET UNSTRUCTURED_GRID
POINTS 4345 float
8 0 -9 9 0 -10 9 0 -9 
7 1 -9 8 1 -9 8 1 -10 
9 1 -10 6 2 -9 7 2 -9 
7 2 -10 8 2 -10 5 3 -9 
6 3 -9 6 3 -10 7 3 -10 
4 4 -9 5 4 -9 5 4 -10 
6 4 -10 3 5 -9 4 5 -9 
4 5 -10 5 5 -10 2 6 -9 
3 6 -9 3 6 -10 4 6 -10 
1 7 -9 2 7 -9 2 7 -10 
3 7 -10 0 8 -9 1 8 -9 
1 8 -10 2 8 -10 -1 9 -9 
0 9 -9 0 9 -10 1 9 -10 
-2 10 -9 -1 10 -9 -1 10 -10 
0 10 -10 10 -2 -8 9 -1 -8 
10 -1 -8 10 -1 -9 9 0 -8 
8 0 -8 10 0 -9 7 0 -7 
8 0 -7 6 1 -7 7 1 -7 
7 1 -8 8 1 -8 5 2 -7 
6 2 -7 6 2 -8 7 2 -8 
4 3 -7 5 3 -7 5 3 -8 
6 3 -8 3 4 -7 4 4 -7 
4 4 -8 5 4 -8 2 5 -7 
3 5 -7 3 5 -8 4 5 -8 
1 6 -7 2 6 -7 2 6 -8 
3 6 -8 0 7 -7 1 7 -7 
1 7 -8 2 7 -8 -1 8 -7 
0 8 -7 0 8 -8 1 8 -8 
-2 9 -7 -1 9 -7 -1 9 -8 
0 9 -8 -3 10 -7 -2 10 -7 
-2 10 -8 -1 10 -8 10 -3 -6 
9 -2 -6 10 -2 -6 10 -2 -7 
8 -1 -6 9 -1 -6 9 -1 -7 
10 -1 -7 8 0 -6 7 0 -6 
9 0 -7 5 1 -5 6 1 -6 
6 1 -5 4 2 -5 5 2 -5 
5 2 -6 6 2 -6 3 3 -5 
4 3 -5 4 3 -6 5 3 -6 
2 4 -5 3 4 -5 3 4 -6 
4 4 -6 1 5 -5 2 5 -5 
2 5 -6 3 5 -6 0 6 -5 
1 6 -5 1 6 -6 2 6 -6 
-1 7 -5 0 7 -5 0 7 -6 
1 7 -6 -2 8 -5 -1 8 -5 
-1 8 -6 0 8 -6 -3 9 -5 
-2 9 -5 -2 9 -6 -1 9 -6 
-4 10 -5 -3 10 -5 -3 10 -6 
-2 10 -6 10 -4 -4 9 -3 -4 
10 -3 -4 10 -3 -5 8 -2 -4 
9 -2 -4 9 -2 -5 10 -2 -5 
7 -1 -4 8 -1 -4 8 -1 -5 
9 -1 -5 6 0 -4 7 0 -4 
7 0 -5 8 0 -5 6 1 -4 
5 1 -4 7 1 -5 3 2 -3 
4 2 -4 4 2 -3 2 3 -3 
3 3 -3 3 3 -4 4 3 -4 
1 4 -3 2 4 -3 2 4 -4 
3 4 -4 0 5 -3 1 5 -3 
1 5 -4 2 5 -4 -1 6 -3 
0 6 -3 0 6 -4 1 6 -4 
-2 7 -3 -1 7 -3 -1 7 -4 
0 7 -4 -3 8 -3 -2 8 -3 
-2 8 -4 -1 8 -4 -4 9 -3 
-3 9 -3 -3 9 -4 -2 9 -4 
-5 10 -3 -4 10 -3 -4 10 -4 
-3 10 -4 10 -5 -2 9 -4 -2 
10 -4 -2 10 -4 -3 8 -3 -2 
9 -3 -2 9 -3 -3 10 -3 -3 
7 -2 -2 8 -2 -2 8 -2 -3 
9 -2 -3 6 -1 -2 7 -1 -2 
7 -1 -3 8 -1 -3 5 0 -2 
6 0 -2 6 0 -3 7 0 -3 
4 1 -2 5 1 -2 5 1 -3 
6 1 -3 4 2 -2 3 2 -2 
5 2 -3 2 2 -1 3 2 -1 
1 3 -1 2 3 -1 2 3 -2 
3 3 -2 0 4 -1 1 4 -1 
1 4 -2 2 4 -2 -1 5 -1 
0 5 -1 0 5 -2 1 5 -2 
-2 6 -1 -1 6 -1 -1 6 -2 
0 6 -2 -3 7 -1 -2 7 -1 
-2 7 -2 -1 7 -2 -4 8 -1 
-3 8 -1 -3 8 -2 -2 8 -2 
-5 9 -1 -4 9 -1 -4 9 -2 
-3 9 -2 -6 10 -1 -5 10 -1 
-5 10 -2 -4 10 -2 10 -6 0 
9 -5 0 10 -5 0 10 -5 -1 
8 -4 0 9 -4 0 9 -4 -1 
10 -4 -1 7 -3 0 8 -3 0 
8 -3 -1 9 -3 -1 6 -2 0 
7 -2 0 7 -2 -1 8 -2 -1 
5 -1 0 6 -1 0 6 -1 -1 
7 -1 -1 4 0 0 5 0 0 
5 0 -1 6 0 -1 3 1 0 
4 1 0 4 1 -1 5 1 -1 
3 2 0 2 2 0 4 2 -1 
0 3 1 1 3 0 1 3 1 
-1 4 1 0 4 1 0 4 0 
1 4 0 -2 5 1 -1 5 1 
-1 5 0 0 5 0 -3 6 1 
-2 6 1 -2 6 0 -1 6 0 
-4 7 1 -3 7 1 -3 7 0 
-2 7 0 -5 8 1 -4 8 1 
-4 8 0 -3 8 0 -6 9 1 
-5 9 1 -5 9 0 -4 9 0 
-7 10 1 -6 10 1 -6 10 0 
-5 10 0 10 -7 2 9 -6 2 
10 -6 2 10 -6 1 8 -5 2 
9 -5 2 9 -5 1 10 -5 1 
7 -4 2 8 -4 2 8 -4 1 
9 -4 1 6 -3 2 7 -3 2 
7 -3 1 8 -3 1 5 -2 2 
6 -2 2 6 -2 1 7 -2 1 
4 -1 2 5 -1 2 5 -1 1 
6 -1 1 3 0 2 4 0 2 
4 0 1 5 0 1 2 1 2 
3 1 2 3 1 1 4 1 1 
1 2 2 2 2 2 2 2 1 
3 2 1 1 3 2 0 3 2 
2 3 1 -2 4 3 -1 4 2 
-1 4 3 -3 5 3 -2 5 3 
-2 5 2 -1 5 2 -4 6 3 
-3 6 3 -3 6 2 -2 6 2 
-5 7 3 -4 7 3 -4 7 2 
-3 7 2 -6 8 3 -5 8 3 
-5 8 2 -4 8 2 -7 9 3 
-6 9 3 -6 9 2 -5 9 2 
-8 10 3 -7 10 3 -7 10 2 
-6 10 2 10 -8 4 9 -7 4 
10 -7 4 10 -7 3 8 -6 4 
9 -6 4 9 -6 3 10 -6 3 
7 -5 4 8 -5 4 8 -5 3 
9 -5 3 6 -4 4 7 -4 4 
7 -4 3 8 -4 3 5 -3 4 
6 -3 4 6 -3 3 7 -3 3 
4 -2 4 5 -2 4 5 -2 3 
6 -2 3 3 -1 4 4 -1 4 
4 -1 3 5 -1 3 2 0 4 
3 0 4 3 0 3 4 0 3 
1 1 4 2 1 4 2 1 3 
3 1 3 0 2 4 1 2 4 
1 2 3 2 2 3 -1 3 4 
0 3 4 0 3 3 1 3 3 
-1 4 4 -2 4 4 0 4 3 
-3 4 5 -2 4 5 -4 5 5 
-3 5 5 -3 5 4 -2 5 4 
-5 6 5 -4 6 5 -4 6 4 
-3 6 4 -6 7 5 -5 7 5 
-5 7 4 -4 7 4 -7 8 5 
-6 8 5 -6 8 4 -5 8 4 
-8 9 5 -7 9 5 -7 9 4 
-6 9 4 -9 10 5 -8 10 5 
-8 10 4 -7 10 4 9 -8 6 
10 -8 5 10 -8 6 8 -7 6 
9 -7 6 9 -7 5 10 -7 5 
7 -6 6 8 -6 6 8 -6 5 
9 -6 5 6 -5 6 7 -5 6 
7 -5 5 8 -5 5 5 -4 6 
6 -4 6 6 -4 5 7 -4 5 
4 -3 6 5 -3 6 5 -3 5 
6 -3 5 3 -2 6 4 -2 6 
4 -2 5 5 -2 5 2 -1 6 
3 -1 6 3 -1 5 4 -1 5 
1 0 6 2 0 6 2 0 5 
3 0 5 0 1 6 1 1 6 
1 1 5 2 1 5 -1 2 6 
0 2 6 0 2 5 1 2 5 
-2 3 6 -1 3 6 -1 3 5 
0 3 5 -2 4 6 -3 4 6 
-1 4 5 10 -9 7 10 -8 7 
9 -8 7 -5 5 7 -4 5 6 
-4 5 7 -6 6 7 -5 6 7 
-5 6 6 -4 6 6 -7 7 7 
-6 7 7 -6 7 6 -5 7 6 
-8 8 7 -7 8 7 -7 8 6 
-6 8 6 -9 9 7 -8 9 7 
-8 9 6 -7 9 6 -9 10 7 
-10 10 7 -9 10 6 -8 10 6 
8 -8 8 9 -8 8 7 -7 8 
8 -7 8 8 -7 7 9 -7 7 
6 -6 8 7 -6 8 7 -6 7 
8 -6 7 5 -5 8 6 -5 8 
6 -5 7 7 -5 7 4 -4 8 
5 -4 8 5 -4 7 6 -4 7 
3 -3 8 4 -3 8 4 -3 7 
5 -3 7 2 -2 8 3 -2 8 
3 -2 7 4 -2 7 1 -1 8 
2 -1 8 2 -1 7 3 -1 7 
0 0 8 1 0 8 1 0 7 
2 0 7 -1 1 8 0 1 8 
0 1 7 1 1 7 -2 2 8 
-1 2 8 -1 2 7 0 2 7 
-3 3 8 -2 3 8 -2 3 7 
-1 3 7 -4 4 8 -3 4 8 
-3 4 7 -2 4 7 -4 5 8 
-5 5 8 -3 5 7 9 -9 9 
10 -9 9 10 -10 9 10 -9 8 
9 -8 9 8 -8 9 10 -8 8 
-7 6 9 -6 6 8 -6 6 9 
-8 7 9 -7 7 9 -7 7 8 
-6 7 8 -9 8 9 -8 8 9 
-8 8 8 -7 8 8 -9 9 9 
-10 9 9 -9 9 8 -8 9 8 
-10 10 8 -10 10 9 -9 10 8 
6 -7 10 7 -7 9 7 -7 10 
5 -6 10 6 -6 10 6 -6 9 
7 -6 9 4 -5 10 5 -5 10 
5 -5 9 6 -5 9 3 -4 10 
4 -4 10 4 -4 9 5 -4 9 
2 -3 10 3 -3 10 3 -3 9 
4 -3 9 1 -2 10 2 -2 10 
2 -2 9 3 -2 9 0 -1 10 
1 -1 10 1 -1 9 2 -1 9 
-1 0 10 0 0 10 0 0 9 
1 0 9 -2 1 10 -1 1 10 
-1 1 9 0 1 9 -3 2 10 
-2 2 10 -2 2 9 -1 2 9 
-4 3 10 -3 3 10 -3 3 9 
-2 3 9 -5 4 10 -4 4 10 
-4 4 9 -3 4 9 -6 5 10 
-5 5 10 -5 5 9 -4 5 9 
-6 6 10 -7 6 10 -5 6 9 
9 1 -9 8 2 -9 7 3 -9 
6 4 -9 5 5 -9 4 6 -9 
3 7 -9 2 8 -9 1 9 -9 
0 10 -9 10 0 -8 8 1 -7 
7 2 -7 6 3 -7 5 4 -7 
4 5 -7 3 6 -7 2 7 -7 
1 8 -7 0 9 -7 -1 10 -7 
10 -1 -6 9 0 -6 6 2 -5 
5 3 -5 4 4 -5 3 5 -5 
2 6 -5 1 7 -5 0 8 -5 
-1 9 -5 -2 10 -5 10 -2 -4 
9 -1 -4 8 0 -4 7 1 -4 
4 3 -3 3 4 -3 2 5 -3 
1 6 -3 0 7 -3 -1 8 -3 
-2 9 -3 -3 10 -3 10 -3 -2 
9 -2 -2 8 -1 -2 7 0 -2 
6 1 -2 5 2 -2 3 3 -1 
2 4 -1 1 5 -1 0 6 -1 
-1 7 -1 -2 8 -1 -3 9 -1 
-4 10 -1 10 -4 0 9 -3 0 
8 -2 0 7 -1 0 6 0 0 
5 1 0 4 2 0 1 4 1 
0 5 1 -1 6 1 -2 7 1 
-3 8 1 -4 9 1 -5 10 1 
10 -5 2 9 -4 2 8 -3 2 
7 -2 2 6 -1 2 5 0 2 
4 1 2 3 2 2 2 3 2 
-1 5 3 -2 6 3 -3 7 3 
-4 8 3 -5 9 3 -6 10 3 
10 -6 4 9 -5 4 8 -4 4 
7 -3 4 6 -2 4 5 -1 4 
4 0 4 3 1 4 2 2 4 
1 3 4 0 4 4 -2 5 5 
-3 6 5 -4 7 5 -5 8 5 
-6 9 5 -7 10 5 10 -7 6 
9 -6 6 8 -5 6 7 -4 6 
6 -3 6 5 -2 6 4 -1 6 
3 0 6 2 1 6 1 2 6 
0 3 6 -1 4 6 -4 6 7 
-5 7 7 -6 8 7 -7 9 7 
-8 10 7 9 -7 8 8 -6 8 
7 -5 8 6 -4 8 5 -3 8 
4 -2 8 3 -1 8 2 0 8 
1 1 8 0 2 8 -1 3 8 
-2 4 8 -3 5 8 10 -8 9 
-6 7 9 -7 8 9 -8 9 9 
-9 10 9 7 -6 10 6 -5 10 
5 -4 10 4 -3 10 3 -2 10 
2 -1 10 1 0 10 0 1 10 
-1 2 10 -2 3 10 -3 4 10 
-4 5 10 -5 6 10 10 -1 -10 
10 0 -10 7 1 -6 5 2 -4 
2 3 0 0 4 2 -3 5 6 
-5 6 8 8 -7 9 9 -9 10 
10 -9 10 10 -10 10 8 -8 10 
9 -8 10 8 -7 10 -8 7 10 
-7 7 10 -9 8 10 -8 8 10 
-9 9 10 -10 9 10 10 1 -10 
10 1 -9 9 2 -10 9 2 -9 
10 2 -10 10 2 -9 8 3 -10 
8 3 -9 9 3 -10 9 3 -9 
10 3 -10 10 3 -9 7 4 -10 
7 4 -9 8 4 -10 8 4 -9 
9 4 -10 9 4 -9 10 4 -10 
10 4 -9 6 5 -10 6 5 -9 
7 5 -10 7 5 -9 8 5 -10 
8 5 -9 9 5 -10 9 5 -9 
10 5 -10 10 5 -9 5 6 -10 
5 6 -9 6 6 -10 6 6 -9 
7 6 -10 7 6 -9 8 6 -10 
8 6 -9 9 6 -10 9 6 -9 
10 6 -10 10 6 -9 4 7 -10 
4 7 -9 5 7 -10 5 7 -9 
6 7 -10 6 7 -9 7 7 -10 
7 7 -9 8 7 -10 8 7 -9 
9 7 -10 9 7 -9 10 7 -10 
10 7 -9 3 8 -10 3 8 -9 
4 8 -10 4 8 -9 5 8 -10 
5 8 -9 6 8 -10 6 8 -9 
7 8 -10 7 8 -9 8 8 -10 
8 8 -9 9 8 -10 9 8 -9 
10 8 -10 10 8 -9 2 9 -10 
2 9 -9 3 9 -10 3 9 -9 
4 9 -10 4 9 -9 5 9 -10 
5 9 -9 6 9 -10 6 9 -9 
7 9 -10 7 9 -9 8 9 -10 
8 9 -9 9 9 -10 9 9 -9 
10 9 -10 10 9 -9 1 10 -10 
1 10 -9 2 10 -10 2 10 -9 
3 10 -10 3 10 -9 4 10 -10 
4 10 -9 5 10 -10 5 10 -9 
6 10 -10 6 10 -9 7 10 -10 
7 10 -9 8 10 -10 8 10 -9 
9 10 -10 9 10 -9 10 10 -10 
10 10 -9 9 1 -8 10 1 -8 
8 2 -8 9 2 -8 10 2 -8 
7 3 -8 8 3 -8 9 3 -8 
10 3 -8 6 4 -8 7 4 -8 
8 4 -8 9 4 -8 10 4 -8 
5 5 -8 6 5 -8 7 5 -8 
8 5 -8 9 5 -8 10 5 -8 
4 6 -8 5 6 -8 6 6 -8 
7 6 -8 8 6 -8 9 6 -8 
10 6 -8 3 7 -8 4 7 -8 
5 7 -8 6 7 -8 7 7 -8 
8 7 -8 9 7 -8 10 7 -8 
2 8 -8 3 8 -8 4 8 -8 
5 8 -8 6 8 -8 7 8 -8 
8 8 -8 9 8 -8 10 8 -8 
1 9 -8 2 9 -8 3 9 -8 
4 9 -8 5 9 -8 6 9 -8 
7 9 -8 8 9 -8 9 9 -8 
10 9 -8 0 10 -8 1 10 -8 
2 10 -8 3 10 -8 4 10 -8 
5 10 -8 6 10 -8 7 10 -8 
8 10 -8 9 10 -8 10 10 -8 
10 0 -7 9 1 -7 10 1 -7 
8 2 -7 9 2 -7 10 2 -7 
7 3 -7 8 3 -7 9 3 -7 
10 3 -7 6 4 -7 7 4 -7 
8 4 -7 9 4 -7 10 4 -7 
5 5 -7 6 5 -7 7 5 -7 
8 5 -7 9 5 -7 10 5 -7 
4 6 -7 5 6 -7 6 6 -7 
7 6 -7 8 6 -7 9 6 -7 
10 6 -7 3 7 -7 4 7 -7 
5 7 -7 6 7 -7 7 7 -7 
8 7 -7 9 7 -7 10 7 -7 
2 8 -7 3 8 -7 4 8 -7 
5 8 -7 6 8 -7 7 8 -7 
8 8 -7 9 8 -7 10 8 -7 
1 9 -7 2 9 -7 3 9 -7 
4 9 -7 5 9 -7 6 9 -7 
7 9 -7 8 9 -7 9 9 -7 
10 9 -7 0 10 -7 1 10 -7 
2 10 -7 3 10 -7 4 10 -7 
5 10 -7 6 10 -7 7 10 -7 
8 10 -7 9 10 -7 10 10 -7 
10 0 -6 8 1 -6 9 1 -6 
10 1 -6 7 2 -6 8 2 -6 
9 2 -6 10 2 -6 6 3 -6 
7 3 -6 8 3 -6 9 3 -6 
10 3 -6 5 4 -6 6 4 -6 
7 4 -6 8 4 -6 9 4 -6 
10 4 -6 4 5 -6 5 5 -6 
6 5 -6 7 5 -6 8 5 -6 
9 5 -6 10 5 -6 3 6 -6 
4 6 -6 5 6 -6 6 6 -6 
7 6 -6 8 6 -6 9 6 -6 
10 6 -6 2 7 -6 3 7 -6 
4 7 -6 5 7 -6 6 7 -6 
7 7 -6 8 7 -6 9 7 -6 
10 7 -6 1 8 -6 2 8 -6 
3 8 -6 4 8 -6 5 8 -6 
6 8 -6 7 8 -6 8 8 -6 
9 8 -6 10 8 -6 0 9 -6 
1 9 -6 2 9 -6 3 9 -6 
4 9 -6 5 9 -6 6 9 -6 
7 9 -6 8 9 -6 9 9 -6 
10 9 -6 -1 10 -6 0 10 -6 
1 10 -6 2 10 -6 3 10 -6 
4 10 -6 5 10 -6 6 10 -6 
7 10 -6 8 10 -6 9 10 -6 
10 10 -6 10 -1 -5 9 0 -5 
10 0 -5 8 1 -5 9 1 -5 
10 1 -5 7 2 -5 8 2 -5 
9 2 -5 10 2 -5 6 3 -5 
7 3 -5 8 3 -5 9 3 -5 
10 3 -5 5 4 -5 6 4 -5 
7 4 -5 8 4 -5 9 4 -5 
10 4 -5 4 5 -5 5 5 -5 
6 5 -5 7 5 -5 8 5 -5 
9 5 -5 10 5 -5 3 6 -5 
4 6 -5 5 6 -5 6 6 -5 
7 6 -5 8 6 -5 9 6 -5 
10 6 -5 2 7 -5 3 7 -5 
4 7 -5 5 7 -5 6 7 -5 
7 7 -5 8 7 -5 9 7 -5 
10 7 -5 1 8 -5 2 8 -5 
3 8 -5 4 8 -5 5 8 -5 
6 8 -5 7 8 -5 8 8 -5 
9 8 -5 10 8 -5 0 9 -5 
1 9 -5 2 9 -5 3 9 -5 
4 9 -5 5 9 -5 6 9 -5 
7 9 -5 8 9 -5 9 9 -5 
10 9 -5 -1 10 -5 0 10 -5 
1 10 -5 2 10 -5 3 10 -5 
4 10 -5 5 10 -5 6 10 -5 
7 10 -5 8 10 -5 9 10 -5 
10 10 -5 10 -1 -4 9 0 -4 
10 0 -4 8 1 -4 9 1 -4 
10 1 -4 6 2 -4 7 2 -4 
8 2 -4 9 2 -4 10 2 -4 
5 3 -4 6 3 -4 7 3 -4 
8 3 -4 9 3 -4 10 3 -4 
4 4 -4 5 4 -4 6 4 -4 
7 4 -4 8 4 -4 9 4 -4 
10 4 -4 3 5 -4 4 5 -4 
5 5 -4 6 5 -4 7 5 -4 
8 5 -4 9 5 -4 10 5 -4 
2 6 -4 3 6 -4 4 6 -4 
5 6 -4 6 6 -4 7 6 -4 
8 6 -4 9 6 -4 10 6 -4 
1 7 -4 2 7 -4 3 7 -4 
4 7 -4 5 7 -4 6 7 -4 
7 7 -4 8 7 -4 9 7 -4 
10 7 -4 0 8 -4 1 8 -4 
2 8 -4 3 8 -4 4 8 -4 
5 8 -4 6 8 -4 7 8 -4 
[...]
POINT_DATA 4345
SCALARS RTData float
LOOKUP_TABLE default
135.86 95.6348 107.177 109.438 117.289 104.891 77.1654 147.52 122.881 
109.794 118.642 157.884 164.218 150.649 127 158.629 140.383 126.565 
133.835 125.786 130.338 116.52 99.107 137.927 127.573 114.004 119.243 
150.183 152.416 139.329 129.484 136.463 134.435 122.037 124.579 103.118 
102.272 90.7305 88.8048 89.9178 95.6513 85.0878 84.1445 117.718 126.49 
134.797 133.78 109.151 138.727 116.34 148.537 154.671 156.118 129.803 
113.099 120.102 164.29 169.064 151.784 126.367 199.782 180.163 162.524 
168.177 177.729 181.158 163.397 144.585 159.243 148.065 130.426 134.54 
157.734 159.47 142.19 131.532 172.738 170.548 153.844 155.902 155.962 
155.274 139.33 137.248 113.907 120.084 105.042 104.246 108.83 104.845 
90.7986 96.6676 120.007 136.445 143.269 131.764 185.124 153.964 141.533 
148.972 167.94 162.564 124.242 168.951 170.794 172.389 202.252 181.423 
179.421 183.574 214.947 217.36 215.147 195.007 207.25 195.307 193.094 
196.116 175.113 176.377 174.374 162.91 176.353 174.004 172.41 173.98 
188.309 187.776 186.765 184.522 162.843 169.469 169.183 168.543 128.947 
125.665 126.206 132.516 104.731 118.706 120.138 116.349 135.92 122.207 
128.049 118.575 178.415 146.143 135.903 142.014 192.186 196.362 185.411 
153.541 203.401 175.15 163.575 168.271 184.465 181.514 144.742 226.577 
215.092 228.207 253.628 241.073 227.881 229.969 232.333 233.205 220.09 
207.916 203.051 200.567 187.676 188.804 201.4 201.004 188.473 186.081 
204.87 211.902 199.844 199.352 187.811 185.18 173.684 180.421 135.061 
149.895 139.02 135.904 130.084 124.222 113.999 128.18 157.285 136.032 
141.53 146.143 161.707 128.948 133.082 138.439 182.669 186.235 189.912 
157.153 229.932 200.982 204.245 207.949 210.81 213.018 215.932 187.242 
213.725 191.755 194.405 196.962 225.722 224.291 206.632 241.953 229.018 
255.457 256.069 251.342 238.644 237.169 234.59 229.933 230.72 205.244 
204.95 200.428 197.917 195.442 202.787 198.46 198.09 207.731 205.621 
201.536 208.639 172.291 187.836 184.026 181.503 139.3 134.305 130.792 
145.76 107.247 128.528 125.318 119.608 151.486 162.415 168.256 160.494 
179.958 147.41 139.546 144.832 169.845 173.48 165.517 132.544 223.826 
194.811 186.755 190.111 240.366 242.396 234.259 205.111 245.76 223.534 
215.331 217.361 225.487 226.631 218.383 196.259 237.291 250.255 230.328 
258.078 263.748 255.457 237.412 237.169 245.424 242.839 197.722 205.244 
213.442 213.153 197.228 195.442 203.564 210.925 191.714 207.731 215.763 
213.678 176.676 172.291 180.224 195.8 117.295 139.3 147.129 142.169 
115.034 107.247 114.972 136.289 109.438 133.835 140.659 143.761 182.846 
151.174 154.585 160.494 163.932 168.305 172.025 139.546 186.236 157.799 
161.813 165.517 208.982 211.424 215.704 186.755 249.635 227.664 232.169 
234.259 231.563 232.831 237.506 215.331 225.35 212.416 217.197 218.383 
236.56 237.136 241.953 229.018 250.677 253.28 256.069 227.617 232.755 
235.156 197.706 195.997 193.267 200.74 179.983 196.166 193.024 191.162 
195.525 191.407 187.797 203.716 154.809 177.182 173.067 168.571 125.963 
118.634 114.003 135.889 91.408 117.193 112.053 104.146 103.17 96.761 
105.068 114.577 158.52 128.267 138.466 145.602 170.385 176.059 186.96 
155.611 183.254 155.956 167.542 172.237 173.768 177.153 189.377 161.25 
220.172 198.931 211.713 214.441 237.021 238.806 252.036 230.314 232.8 
220.188 233.732 235.203 212.959 213.695 227.401 214.615 227.466 224.904 
238.61 239.275 242.194 241.905 255.449 252.875 221.926 214.502 234.867 
203.549 201.662 156.88 172.897 185.104 183.216 160.769 156.536 167.99 
183.942 151.251 173.583 184.205 179.82 141.731 134.445 144.195 166.28 
81.2715 107.183 116.058 108.434 84.7 74.157 82.1868 107.684 88.1554 
95.1399 98.2505 118.498 90.0136 87.8858 96.6831 142.52 149.881 148.77 
119.028 185.616 159.859 159.763 165.953 166.202 170.929 171.8 145.004 
179.956 159.816 161.562 165.414 202.228 204.85 207.332 186.504 232.703 
220.659 223.7 225.824 214.74 215.79 219.179 206.818 198.196 195.728 
199.236 200.124 210.825 210.455 213.845 211.334 218.61 225.832 228.873 
228.535 199.179 201.336 208.944 105.774 88.8113 78.1278 145.743 155.484 
141.029 125.005 146.891 160.307 155.665 147.159 139.494 151.793 173.679 
106.528 132.147 143.301 135.555 84.5684 73.826 83.8535 109.31 79.2846 
52.5231 88.2428 77.2676 92.2469 65.671 84.4494 93.6751 107.344 79.4803 
139.327 115.321 130.221 138.215 149.802 156.097 172.2 147.065 153.338 
134.526 151.747 157.058 142.726 146.392 164.591 144.972 178.453 167.146 
186.132 189.186 195.081 196.557 216.095 204.373 180.38 178.045 197.867 
199.115 161.994 161.501 181.323 178.921 167.785 174.679 194.216 193.781 
186.159 183.528 202.514 209.546 152.665 167.773 185.972 183.515 123.809 
129.04 156.308 83.867 96.4541 87.4557 94.4684 66.453 92.3805 76.9876 
115.443 109.471 107.034 106.746 131.698 132.852 124.594 104.897 93.5855 
93.4519 118.479 74.0583 47.7573 72.6808 61.3692 41.7457 44.2847 67.9785 
94.8313 83.2954 72.5914 116.963 124.875 136.89 113.546 150.288 132.875 
146.14 153.065 129.381 134.174 148.57 130.324 132.171 121.677 137.025 
141.166 154.016 155.976 172.046 161.096 173.889 171.71 188.232 189.93 
157.346 156.706 173.381 171.121 132.138 138.623 155.145 154.577 148.553 
145.307 161.377 168.052 150.762 165.111 180.459 177.479 139.57 133.501 
147.897 162.547 91.654 112.113 125.378 119.606 95.0187 104.104 127.756 
88.6559 130.874 139.795 146.981 112.372 132.389 142.279 136.811 100.295 
94.7546 117.402 135.994 142.903 185.165 161.805 151.761 148.52 172.439 
153.14 119.337 110.843 160.598 136.717 185.019 196.753 197.963 164.655 
175.425 185.487 168.873 132.093 115.094 151.64 163.883 179.26 156.277 
242.897 220.844 201.586 198.578 211.443 192.008 146.914 138.57 133.948 
153.118 204.339 184.003 194.022 203.902 243.284 235.326 202.422 202.433 
212.769 185.38 149.357 122.91 152.625 140.436 198.097 213.183 225.504 
204.457 238.559 234.59 204.95 202.787 205.621 187.836 134.305 128.528 
157.285 136.032 161.707 182.669 229.932 210.81 213.725 224.291 251.342 
203.39 194.178 207.168 172.504 140.325 109.089 135.826 145.147 161.089 
149.448 202.047 217.424 221.935 201.111 225.691 239.371 221.599 170.788 
172.203 168.869 156.175 99.1959 99.2987 99.3806 120.734 166.651 144.717 
164.213 184.501 223.177 203.72 196.794 208.003 225.436 206.297 141.794 
160.885 123.889 98.7771 67.8283 66.4796 123.996 131.631 140.466 127.333 
170.665 185.183 179.507 159.171 174.173 190.356 164.994 138.669 78.4318 
122.819 117.993 62.1512 69.9643 102.207 140.442 116.506 126.302 145.391 
173.636 154.523 137.979 151.758 161.774 147.683 105.788 115.133 123.217 
105.73 143.778 193.851 264.342 232.495 171.152 130.788 93.189 75.7489 
88.9574 80.5241 82.9917 57.7266 83.1673 96.7248 120.994 96.1707 84.1968 
65.9402 40.2606 87.3072 97.8707 91.052 102.39 101.332 111.757 136.06 
148.021 108.691 119.781 119.198 129.396 110.453 122.851 119.801 131.394 
92.7331 103.485 103.547 113.438 106.674 119.297 83.6225 95.5305 93.3255 
104.464 66.6294 76.9632 77.8231 87.3347 102.127 114.75 110.038 122.053 
87.3712 98.7095 97.4873 108.097 71.2235 81.0717 82.8587 91.9287 134.991 
147.389 118.205 130.113 126.5 137.839 104.26 114.964 114.836 124.858 
89.0536 98.3614 101.18 109.759 114.946 126.907 120.74 132.333 104.309 
115.448 113.018 123.628 91.2378 101.26 102.308 111.697 77.0432 85.7696 
89.6985 97.7484 91.482 102.82 82.0701 93.1595 88.165 98.9164 72.1062 
82.44 81.2471 91.0954 59.9481 69.256 71.5363 80.2627 46.8126 54.9308 
60.0212 67.5179 82.2654 92.8289 85.0811 95.5061 75.8955 86.0942 82.2978 
92.1891 66.6187 76.1303 76.2012 85.2712 55.3936 63.9722 67.5105 75.5604 
43.3401 50.8368 57.1137 64.0453 90.5798 98.887 133.524 104.165 112.638 
142.995 150.406 121.312 130.056 150.525 125.664 133.419 104.685 113.797 
116.034 122.329 97.863 106.044 77.7548 87.3213 135.933 117.782 124.491 
100.484 109.159 81.388 91.4831 145.48 150.201 132.445 139.613 116.118 
125.344 98.1486 108.832 139.461 129.292 134.358 117.027 124.69 101.746 
111.563 84.9877 96.3042 102.219 104.595 94.6907 100.117 83.2315 91.4116 
69.0432 79.4808 53.5533 65.5321 95.8166 93.8452 96.3869 86.7535 92.5475 
76.1169 84.8257 63.0456 74.1162 48.851 61.5063 131.621 105.623 113.063 
149.261 119.065 126.684 159.258 165.889 135.979 143.89 167.117 141.556 
148.558 119.036 127.343 132.737 138.432 113.297 120.757 91.7154 100.513 
152.525 133.885 140.024 115.385 123.379 94.8944 104.261 161.743 166.093 
147.879 154.514 130.426 139.013 111.149 121.151 155.198 144.775 149.497 
131.741 138.909 115.414 124.64 97.4444 108.128 117.262 119.495 109.358 
114.468 97.1922 104.918 82.0439 91.9375 65.4409 76.8383 110.036 108.021 
110.433 100.588 106.094 89.3083 97.6039 75.364 85.9399 60.1571 72.2838 
143.287 149.214 118.054 124.688 156.723 162.338 131.364 138.189 199.404 
172.824 178.73 148.062 155.198 176.261 180.988 154.776 161.079 130.825 
138.384 166.216 146.712 151.848 126.091 132.883 103.141 111.223 162.759 
166.396 147.301 152.912 127.684 135.044 105.898 114.588 186.258 175.308 
179.313 160.673 166.813 142.173 150.167 121.683 131.05 166.36 168.274 
157.616 162.017 143.866 150.575 126.568 135.243 107.472 117.567 131.813 
129.693 131.794 121.441 126.257 108.618 115.921 92.5772 101.965 74.9394 
85.7964 122.468 121.701 119.646 121.937 111.896 117.135 100.019 107.93 
85.263 95.3791 69.1153 80.7505 159.451 136.335 142.177 149.501 117.632 
123.541 157.547 162.495 130.823 136.934 200.606 173.42 178.676 147.326 
153.766 177.657 181.859 155.063 160.737 129.825 136.712 167.612 147.677 
152.31 125.995 132.185 101.815 109.254 163.961 167.267 147.763 152.899 
127.142 133.934 104.192 112.274 187.083 175.905 179.6 160.577 166.271 
141.136 148.597 119.555 128.352 166.647 168.432 157.561 161.675 143.169 
149.464 124.998 133.179 104.89 114.457 131.431 129.271 131.253 120.705 
125.257 107.291 114.216 90.4494 99.3831 71.8822 82.2536 121.322 120.591 
118.499 120.683 110.464 115.463 98.0501 105.617 82.5656 92.2685 65.5725 
76.7662 169.17 146.712 151.927 160.452 127.974 133.26 196.967 168.962 
173.335 141.062 146.56 208.959 212.344 184.639 189.334 157.399 163.24 
210.258 189.563 193.313 166.015 171.148 139.67 145.979 176.862 179.518 
159.211 163.413 136.617 142.291 111.379 118.267 187.373 175.7 178.722 
158.866 163.594 137.382 143.684 113.43 120.99 197.021 198.497 187.123 
190.552 171.199 176.511 150.949 157.952 128.43 136.737 179.862 177.599 
179.272 168.22 172.086 153.275 159.215 134.353 142.108 113.374 122.486 
142.435 141.807 139.613 141.492 130.777 135.102 116.856 123.454 99.3246 
107.868 79.9578 89.9117 124.72 131.041 130.341 128.218 130.308 119.938 
124.73 107.062 114.332 90.9507 100.298 73.2306 84.0445 162.153 174.976 
179.758 190.877 157.832 162.541 168.335 172.039 139.066 143.848 209.36 
180.923 184.831 152.073 157.073 221.562 224.568 196.441 200.683 168.273 
173.63 222.931 201.922 205.307 177.601 182.296 150.361 156.202 189.464 
191.877 171.27 175.122 147.937 153.192 121.843 128.283 199.767 187.923 
190.715 170.575 174.972 148.392 154.298 123.63 130.766 209.08 210.459 
198.925 202.138 182.519 187.521 161.614 168.246 138.336 146.246 191.479 
189.185 190.768 179.569 183.235 164.176 169.829 144.647 152.058 122.964 
131.708 153.528 152.928 150.706 152.502 141.652 145.793 127.32 133.654 
109.23 117.457 89.2162 98.832 135.233 141.629 140.955 138.807 140.822 
130.328 134.953 117.078 124.108 100.46 109.52 82.1509 92.6574 157.753 
171.003 175.414 187.289 153.879 158.215 165.072 168.429 135.093 139.504 
206.344 177.589 181.155 148.038 152.673 240.274 218.699 221.427 192.99 
196.898 164.139 169.139 218.221 220.121 198.88 201.996 173.991 178.364 
146.091 151.589 198.855 186.601 188.835 168.007 171.602 144.131 149.078 
117.406 123.517 195.638 196.75 184.782 187.404 167.055 171.208 144.357 
149.972 118.999 125.823 208.204 205.817 207.124 195.474 198.528 178.713 
183.486 157.326 163.684 133.488 141.107 188.397 187.892 185.575 187.092 
175.784 179.303 160.062 165.503 140.086 147.243 117.884 126.357 142.88 
149.555 148.975 146.732 148.468 137.518 141.523 122.883 129.023 104.383 
112.377 83.8925 93.2595 134.08 130.833 137.284 136.629 134.462 136.422 
125.837 130.339 112.313 119.166 95.3202 104.169 76.5784 86.8586 137.326 
156.775 161.186 208.256 174.697 178.881 188.147 191.22 157.586 161.693 
198.349 169.202 172.346 138.787 142.971 208.357 210.624 181.674 185.031 
151.695 156.106 244.795 223.073 225.631 197.004 200.708 167.735 172.517 
222.742 224.527 203.145 206.096 177.908 182.084 149.605 154.891 203.31 
190.976 193.1 172.136 175.574 147.927 152.686 120.817 126.726 199.965 
201.03 188.986 191.504 171.027 175.031 148.014 153.451 122.291 128.924 
212.348 209.946 211.21 199.488 202.445 182.51 187.143 160.828 167.019 
136.648 144.088 192.314 191.822 189.492 190.968 179.594 183.022 163.67 
168.981 143.42 150.422 120.901 129.208 146.537 153.249 152.682 150.427 
152.125 141.114 145.037 126.294 132.314 107.542 115.394 86.7604 95.9751 
137.457 134.267 140.752 140.108 137.929 139.855 129.215 133.642 115.522 
122.267 98.301 107.02 79.294 89.4358 145.144 164.688 169.023 216.255 
182.622 186.729 196.223 199.224 165.515 169.546 206.487 177.273 180.345 
146.712 150.819 216.538 218.746 189.731 193.017 159.607 163.943 251.527 
252.998 231.227 233.727 205.036 208.671 175.627 180.336 243.557 230.945 
232.692 211.262 214.158 185.907 190.017 157.469 162.684 210.619 211.491 
199.129 201.217 180.207 183.592 155.887 160.582 128.647 134.488 210.576 
208.102 209.152 197.082 199.566 179.045 182.999 155.927 161.303 130.08 
136.65 220.84 220.424 218.018 219.266 207.521 210.445 190.469 195.056 
168.688 174.822 144.392 151.772 193.366 200.314 199.826 197.492 198.954 
187.557 190.956 171.566 176.833 151.224 158.174 128.597 136.849 157.248 
154.449 161.174 160.611 158.352 160.037 149.006 152.9 134.123 140.104 
115.287 123.09 94.4069 103.57 130.703 145.276 142.103 148.6 147.96 
145.778 147.692 137.033 141.435 123.284 129.992 105.986 114.661 86.8892 
96.9844 144.832 132.544 137.326 190.111 156.775 161.186 205.111 208.256 
174.697 178.881 217.361 188.147 191.22 157.586 161.693 196.259 198.349 
169.202 172.346 138.787 142.971 230.328 208.357 210.624 181.674 185.031 
151.695 156.106 243.284 244.795 223.073 225.631 197.004 200.708 167.735 
172.517 235.326 222.742 224.527 203.145 206.096 177.908 182.084 149.605 
154.891 202.422 203.31 190.976 193.1 172.136 175.574 147.927 152.686 
120.817 126.726 202.433 199.965 201.03 188.986 191.504 171.027 175.031 
148.014 153.451 122.291 128.924 212.769 212.348 209.946 211.21 199.488 
202.445 182.51 187.143 160.828 167.019 136.648 144.088 185.38 192.314 
191.822 189.492 190.968 179.594 183.022 163.67 168.981 143.42 150.422 
120.901 129.208 149.357 146.537 153.249 152.682 150.427 152.125 141.114 
145.037 126.294 132.314 107.542 115.394 86.7604 95.9751 122.91 137.457 
134.267 140.752 140.108 137.929 139.855 129.215 133.642 115.522 122.267 
98.301 107.02 79.294 89.4358 141.53 128.948 133.948 186.235 153.118 
157.753 200.982 204.339 171.003 175.414 213.018 184.003 187.289 153.879 
158.215 191.755 194.022 165.072 168.429 135.093 139.504 225.722 203.902 
206.344 177.589 181.155 148.038 152.673 238.644 240.274 218.699 221.427 
192.99 196.898 164.139 169.139 229.933 230.72 218.221 220.121 198.88 
201.996 173.991 178.364 146.091 151.589 200.428 197.917 198.855 186.601 
188.835 168.007 171.602 144.131 149.078 117.406 123.517 198.46 198.09 
195.638 196.75 184.782 187.404 167.055 171.208 144.357 149.972 118.999 
125.823 201.536 208.639 208.204 205.817 207.124 195.474 198.528 178.713 
183.486 157.326 163.684 133.488 141.107 184.026 181.503 188.397 187.892 
185.575 187.092 175.784 179.303 160.062 165.503 140.086 147.243 117.884 
126.357 130.792 145.76 142.88 149.555 148.975 146.732 148.468 137.518 
141.523 122.883 129.023 104.383 112.377 83.8925 93.2595 125.318 119.608 
134.08 130.833 137.284 136.629 134.462 136.422 125.837 130.339 112.313 
119.166 95.3202 104.169 76.5784 86.8586 162.051 140.302 146.143 165.492 
133.082 138.439 186.003 189.912 157.153 162.153 232.872 204.245 207.949 
174.976 179.758 213.432 215.932 187.242 190.877 157.832 162.541 216.126 
194.405 196.962 168.335 172.039 139.066 143.848 226.577 228.207 206.632 
209.36 180.923 184.831 152.073 157.073 253.628 241.073 242.897 221.562 
224.568 196.441 200.683 168.273 173.63 232.333 233.205 220.844 222.931 
201.922 205.307 177.601 182.296 150.361 156.202 203.051 200.567 201.586 
189.464 191.877 171.27 175.122 147.937 153.192 121.843 128.283 201.4 
201.004 198.578 199.767 187.923 190.715 170.575 174.972 148.392 154.298 
123.63 130.766 204.87 211.902 211.443 209.08 210.459 198.925 202.138 
182.519 187.521 161.614 168.246 138.336 146.246 187.811 185.18 192.008 
191.479 189.185 190.768 179.569 183.235 164.176 169.829 144.647 152.058 
122.964 131.708 135.061 149.895 146.914 153.528 152.928 150.706 152.502 
141.652 145.793 127.32 133.654 109.23 117.457 89.2162 98.832 130.084 
124.222 138.57 135.233 141.629 140.955 138.807 140.822 130.328 134.953 
117.078 124.108 100.46 109.52 82.1509 92.6574 152.035 129.611 135.92 
154.143 122.207 128.049 174.042 178.415 146.143 151.64 220.375 192.186 
196.362 163.883 169.17 200.505 203.401 175.15 179.26 146.712 151.927 
202.896 181.514 184.465 156.277 160.452 127.974 133.26 213.192 215.092 
193.851 196.967 168.962 173.335 141.062 146.56 240.243 227.881 229.969 
208.959 212.344 184.639 189.334 157.399 163.24 219.104 220.09 207.916 
210.258 189.563 193.313 166.015 171.148 139.67 145.979 190.499 190.124 
187.676 188.804 176.862 179.518 159.211 163.413 136.617 142.291 111.379 
118.267 181.785 188.903 188.473 186.081 187.373 175.7 178.722 158.866 
163.594 137.382 143.684 113.43 120.99 195.365 192.909 199.844 199.352 
197.021 198.497 187.123 190.552 171.199 176.511 150.949 157.952 128.43 
136.737 161.355 176.462 173.684 180.421 179.862 177.599 179.272 168.22 
172.086 153.275 159.215 134.353 142.108 113.374 122.486 129.862 124.37 
139.02 135.904 142.435 141.807 139.613 141.492 130.777 135.102 116.856 
123.454 99.3246 107.868 79.9578 89.9117 99.3124 120.068 113.999 128.18 
124.72 131.041 130.341 128.218 130.308 119.938 124.73 107.062 114.332 
90.9507 100.298 73.2306 84.0445 127.111 135.583 143.022 150.678 119.766 
126.653 138.229 143.485 112.135 118.575 190.099 162.628 167.575 135.903 
142.014 204.86 208.298 180.652 185.411 153.541 159.451 208.905 187.896 
191.281 163.575 168.271 136.335 142.177 187.79 189.914 168.951 172.389 
144.742 149.501 117.632 123.541 212.272 200.018 202.252 181.423 185.019 
157.547 162.495 130.823 136.934 226.051 227.069 214.947 217.36 196.753 
200.606 173.42 178.676 147.326 153.766 208.569 206.122 207.25 195.307 
197.963 177.657 181.859 155.063 160.737 129.825 136.712 177.936 177.515 
175.113 176.377 164.655 167.612 147.677 152.31 125.995 132.185 101.815 
109.254 169.837 176.827 176.353 174.004 175.425 163.961 167.267 147.763 
152.899 127.142 133.934 104.192 112.274 184.147 181.495 188.309 187.776 
185.487 187.083 175.905 179.6 160.577 166.271 141.136 148.597 119.555 
128.352 150.944 165.804 162.843 169.469 168.873 166.647 168.432 157.561 
161.675 143.169 149.464 124.998 133.179 104.89 114.457 120.297 114.525 
128.947 125.665 132.093 131.431 129.271 131.253 120.705 125.257 107.291 
114.216 90.4494 99.3831 71.8822 82.2536 90.597 111.056 104.731 118.706 
115.094 121.322 120.591 118.499 120.683 110.464 115.463 98.0501 105.617 
82.5656 92.2685 65.5725 76.7662 129.424 136.909 144.991 151.02 120.766 
128.325 137.633 143.539 112.871 120.007 188.654 161.803 167.418 136.445 
143.269 202.7 206.704 179.687 185.124 153.964 160.598 206.203 185.683 
189.637 162.564 167.94 136.717 143.287 184.749 187.268 166.79 170.794 
143.778 149.214 118.054 124.688 209.116 197.148 199.77 179.421 183.574 
156.723 162.338 131.364 138.189 223.01 224.199 212.355 215.147 195.007 
199.404 172.824 178.73 148.062 155.198 205.867 203.475 204.768 193.094 
196.116 176.261 180.988 154.776 161.079 130.825 138.384 168.786 175.775 
175.302 172.953 174.374 162.91 166.216 146.712 151.848 126.091 132.883 