# vtk DataFile Version 3.0
vtk output
ASCII
DATASET MULTIBLOCK
CHILDREN 2
CHILD 4
# vtk DataFile Version 3.0
vtk output
ASCII
DATASET UNSTRUCTURED_GRID
FIELD FieldData 1
MaterialID 1 1 int
1 
POINTS 1295 float
-2.034 0 2.72299 -1.99573 0.0441942 2.74509 -2.07227 0.0441942 2.70089 
-1.92575 0 2.78549 -1.95745 0.0883883 2.76719 -2.034 0.125 2.72299 
-2.11055 0.0883883 2.6788 -2.14225 0 2.66049 -1.87715 0.0485286 2.81355 
-1.91918 0.132583 2.78928 -1.99197 0.181111 2.74726 -2.07603 0.181111 2.69873 
-2.14882 0.132583 2.6567 -2.19085 0.0485286 2.63244 -1.81749 0 2.84799 
-1.83397 0.0956709 2.83848 -1.88091 0.176777 2.81138 -1.95115 0.23097 2.77083 
-2.034 0.25 2.72299 -2.11685 0.23097 2.67516 -2.18709 0.176777 2.6346 
-2.23403 0.0956709 2.60751 -2.25051 0 2.59799 -1.94862 0 2.70011 
-2.00275 0.0625 2.66886 -2.05688 0 2.63761 -1.96448 0.0441942 2.69096 
-2.04102 0.0441942 2.64677 -1.91035 0.0441942 2.72221 -1.96448 0.106694 2.69096 
-2.04102 0.106694 2.64677 -2.09515 0.0441942 2.61552 -1.84037 0 2.76261 
-1.86213 0.09375 2.75005 -1.92156 0.16238 2.71574 -2.00275 0.1875 2.66886 
-2.08394 0.16238 2.62199 -2.14337 0.09375 2.58767 -2.16513 0 2.57511 
-1.8459 0.0485286 2.75942 -1.88793 0.132583 2.73516 -1.96072 0.181111 2.69313 
-2.04478 0.181111 2.6446 -2.11757 0.132583 2.60257 -2.1596 0.0485286 2.57831 
-1.79448 0.0478354 2.78911 -1.82619 0.136224 2.7708 -1.88478 0.203873 2.73698 
-1.96132 0.240485 2.69278 -2.04418 0.240485 2.64495 -2.12072 0.203873 2.60075 
-2.17931 0.136224 2.56693 -2.21102 0.0478354 2.54862 -1.9715 0 2.61474 
-1.93323 0.0441942 2.63684 -2.00977 0.0441942 2.59264 -1.86325 0 2.67724 
-1.89495 0.0883883 2.65893 -1.9715 0.125 2.61474 -2.04805 0.0883883 2.57054 
-2.07975 0 2.55224 -1.81465 0.0485286 2.70529 -1.85668 0.132583 2.68103 
-1.92947 0.181111 2.639 -2.01353 0.181111 2.59047 -2.08632 0.132583 2.54845 
-2.12835 0.0485286 2.52418 -1.75499 0 2.73974 -1.77147 0.0956709 2.73022 
-1.81841 0.176777 2.70313 -1.88865 0.23097 2.66257 -1.9715 0.25 2.61474 
-2.05435 0.23097 2.5669 -2.12459 0.176777 2.52635 -2.17153 0.0956709 2.49925 
-2.18801 0 2.48974 -1.88612 0 2.59186 -1.94025 0.0625 2.56061 
-1.99438 0 2.52936 -1.90198 0.0441942 2.58271 -1.97852 0.0441942 2.53851 
-1.84785 0.0441942 2.61396 -1.90198 0.106694 2.58271 -1.97852 0.106694 2.53851 
-2.03265 0.0441942 2.50726 -1.77787 0 2.65436 -1.79963 0.09375 2.6418 
-1.85906 0.16238 2.60749 -1.94025 0.1875 2.56061 -2.02144 0.16238 2.51374 
-2.08087 0.09375 2.47942 -2.10263 0 2.46686 -1.7834 0.0485286 2.65117 
-1.82543 0.132583 2.6269 -1.89822 0.181111 2.58488 -1.98228 0.181111 2.53635 
-2.05507 0.132583 2.49432 -2.0971 0.0485286 2.47006 -1.73198 0.0478354 2.68085 
-1.76369 0.136224 2.66255 -1.82228 0.203873 2.62872 -1.89882 0.240485 2.58453 
-1.98168 0.240485 2.53669 -2.05822 0.203873 2.4925 -2.11681 0.136224 2.45867 
-2.14852 0.0478354 2.44037 -1.909 0 2.50648 -1.87073 0.0441942 2.52858 
-1.94727 0.0441942 2.48439 -1.80075 0 2.56898 -1.83245 0.0883883 2.55068 
-1.909 0.125 2.50648 -1.98555 0.0883883 2.46229 -2.01725 0 2.44398 
-1.75215 0.0485286 2.59704 -1.79418 0.132583 2.57278 -1.86697 0.181111 2.53075 
-1.95103 0.181111 2.48222 -2.02382 0.132583 2.44019 -2.06585 0.0485286 2.41593 
-1.69249 0 2.63148 -1.70897 0.0956709 2.62197 -1.75591 0.176777 2.59487 
-1.82615 0.23097 2.55432 -1.909 0.25 2.50648 -1.99185 0.23097 2.45865 
-2.06209 0.176777 2.4181 -2.10903 0.0956709 2.391 -2.12551 0 2.38148 
-1.82362 0 2.48361 -1.87775 0.0625 2.45236 -1.93188 0 2.42111 
-1.83948 0.0441942 2.47446 -1.91602 0.0441942 2.43026 -1.78535 0.0441942 2.50571 
-1.83948 0.106694 2.47446 -1.91602 0.106694 2.43026 -1.97015 0.0441942 2.39901 
-1.71537 0 2.54611 -1.73713 0.09375 2.53355 -1.79656 0.16238 2.49923 
-1.87775 0.1875 2.45236 -1.95894 0.16238 2.40548 -2.01837 0.09375 2.37117 
-2.04013 0 2.35861 -1.7209 0.0485286 2.54291 -1.76293 0.132583 2.51865 
-1.83572 0.181111 2.47662 -1.91978 0.181111 2.42809 -1.99257 0.132583 2.38607 
-2.0346 0.0485286 2.3618 -1.66948 0.0478354 2.5726 -1.70119 0.136224 2.5543 
-1.75978 0.203873 2.52047 -1.83632 0.240485 2.47628 -1.91918 0.240485 2.42844 
-1.99572 0.203873 2.38425 -2.05431 0.136224 2.35042 -2.08602 0.0478354 2.33212 
-1.8465 0 2.39823 -1.80823 0.0441942 2.42033 -1.88477 0.0441942 2.37613 
-1.73825 0 2.46073 -1.76995 0.0883883 2.44243 -1.8465 0.125 2.39823 
-1.92305 0.0883883 2.35404 -1.95475 0 2.33573 -1.68965 0.0485286 2.48879 
-1.73168 0.132583 2.46452 -1.80447 0.181111 2.4225 -1.88853 0.181111 2.37397 
-1.96132 0.132583 2.33194 -2.00335 0.0485286 2.30768 -1.62999 0 2.52323 
-1.64647 0.0956709 2.51372 -1.69341 0.176777 2.48662 -1.76365 0.23097 2.44607 
-1.8465 0.25 2.39823 -1.92935 0.23097 2.3504 -1.99959 0.176777 2.30984 
-2.04653 0.0956709 2.28275 -2.06301 0 2.27323 -1.76112 0 2.37536 
-1.81525 0.0625 2.34411 -1.86938 0 2.31286 -1.77698 0.0441942 2.3662 
-1.85352 0.0441942 2.32201 -1.72285 0.0441942 2.39745 -1.77698 0.106694 2.3662 
-1.85352 0.106694 2.32201 -1.90765 0.0441942 2.29076 -1.65287 0 2.43786 
-1.67463 0.09375 2.4253 -1.73406 0.16238 2.39098 -1.81525 0.1875 2.34411 
-1.89644 0.16238 2.29723 -1.95588 0.09375 2.26292 -1.97763 0 2.25036 
-1.6584 0.0485286 2.43466 -1.70043 0.132583 2.4104 -1.77322 0.181111 2.36837 
-1.85728 0.181111 2.31984 -1.93007 0.132583 2.27781 -1.9721 0.0485286 2.25355 
-1.60698 0.0478354 2.46435 -1.63869 0.136224 2.44604 -1.69728 0.203873 2.41222 
-1.77382 0.240485 2.36802 -1.85668 0.240485 2.32019 -1.93322 0.203873 2.27599 
-1.99181 0.136224 2.24217 -2.02352 0.0478354 2.22386 -1.784 0 2.28998 
-1.74573 0.0441942 2.31208 -1.82227 0.0441942 2.26788 -1.67575 0 2.35248 
-1.70745 0.0883883 2.33417 -1.784 0.125 2.28998 -1.86055 0.0883883 2.24578 
-1.89225 0 2.22748 -1.62715 0.0485286 2.38053 -1.66918 0.132583 2.35627 
-1.74197 0.181111 2.31424 -1.82603 0.181111 2.26571 -1.89882 0.132583 2.22369 
-1.94085 0.0485286 2.19942 -1.56749 0 2.41498 -1.58397 0.0956709 2.40546 
-1.63091 0.176777 2.37837 -1.70115 0.23097 2.33781 -1.784 0.25 2.28998 
-1.86685 0.23097 2.24214 -1.93709 0.176777 2.20159 -1.98403 0.0956709 2.17449 
-2.00051 0 2.16498 -1.69862 0 2.2671 -1.75275 0.0625 2.23585 
-1.80688 0 2.2046 -1.71448 0.0441942 2.25795 -1.79102 0.0441942 2.21375 
-1.66035 0.0441942 2.2892 -1.71448 0.106694 2.25795 -1.79102 0.106694 2.21375 
-1.84515 0.0441942 2.1825 -1.59037 0 2.3296 -1.61213 0.09375 2.31704 
-1.67156 0.16238 2.28273 -1.75275 0.1875 2.23585 -1.83394 0.16238 2.18898 
-1.89338 0.09375 2.15466 -1.91513 0 2.1421 -1.5959 0.0485286 2.32641 
-1.63793 0.132583 2.30214 -1.71072 0.181111 2.26012 -1.79478 0.181111 2.21159 
-1.86757 0.132583 2.16956 -1.9096 0.0485286 2.1453 -1.54448 0.0478354 2.35609 
-1.57619 0.136224 2.33779 -1.63478 0.203873 2.30396 -1.71132 0.240485 2.25977 
-1.79418 0.240485 2.21193 -1.87072 0.203873 2.16774 -1.92931 0.136224 2.13392 
-1.96102 0.0478354 2.11561 -1.7215 0 2.18173 -1.68323 0.0441942 2.20382 
-1.75977 0.0441942 2.15963 -1.61325 0 2.24423 -1.64495 0.0883883 2.22592 
-1.7215 0.125 2.18173 -1.79805 0.0883883 2.13753 -1.82975 0 2.11923 
-1.56465 0.0485286 2.27228 -1.60668 0.132583 2.24802 -1.67947 0.181111 2.20599 
-1.76353 0.181111 2.15746 -1.83632 0.132583 2.11543 -1.87835 0.0485286 2.09117 
-1.50499 0 2.30673 -1.52147 0.0956709 2.29721 -1.56841 0.176777 2.27011 
-1.63865 0.23097 2.22956 -1.7215 0.25 2.18173 -1.80435 0.23097 2.13389 
-1.87459 0.176777 2.09334 -1.92153 0.0956709 2.06624 -1.93801 0 2.05673 
-1.63612 0 2.15885 -1.69025 0.0625 2.1276 -1.74438 0 2.09635 
-1.65198 0.0441942 2.1497 -1.72852 0.0441942 2.1055 -1.59785 0.0441942 2.18095 
-1.65198 0.106694 2.1497 -1.72852 0.106694 2.1055 -1.78265 0.0441942 2.07425 
-1.52787 0 2.22135 -1.54963 0.09375 2.20879 -1.60906 0.16238 2.17447 
-1.69025 0.1875 2.1276 -1.77144 0.16238 2.08072 -1.83088 0.09375 2.04641 
-1.85263 0 2.03385 -1.5334 0.0485286 2.21815 -1.57543 0.132583 2.19389 
-1.64822 0.181111 2.15186 -1.73228 0.181111 2.10333 -1.80507 0.132583 2.06131 
-1.8471 0.0485286 2.03704 -1.48198 0.0478354 2.24784 -1.51369 0.136224 2.22954 
-1.57228 0.203873 2.19571 -1.64882 0.240485 2.15152 -1.73168 0.240485 2.10368 
-1.80822 0.203873 2.05949 -1.86681 0.136224 2.02566 -1.89852 0.0478354 2.00736 
-1.659 0 2.07347 -1.62073 0.0441942 2.09557 -1.69727 0.0441942 2.05138 
-1.55075 0 2.13597 -1.58245 0.0883883 2.11767 -1.659 0.125 2.07347 
-1.73555 0.0883883 2.02928 -1.76725 0 2.01097 -1.50215 0.0485286 2.16403 
-1.54418 0.132583 2.13976 -1.61697 0.181111 2.09774 -1.70103 0.181111 2.04921 
-1.77382 0.132583 2.00718 -1.81585 0.0485286 1.98292 -1.44249 0 2.19847 
-1.45897 0.0956709 2.18896 -1.50591 0.176777 2.16186 -1.57615 0.23097 2.12131 
-1.659 0.25 2.07347 -1.74185 0.23097 2.02564 -1.81209 0.176777 1.98508 
-1.85903 0.0956709 1.95799 -1.87551 0 1.94847 -1.57362 0 2.0506 
-1.62775 0.0625 2.01935 -1.68188 0 1.9881 -1.58948 0.0441942 2.04144 
-1.66602 0.0441942 1.99725 -1.53535 0.0441942 2.07269 -1.58948 0.106694 2.04144 
-1.66602 0.106694 1.99725 -1.72015 0.0441942 1.966 -1.46537 0 2.1131 
-1.48713 0.09375 2.10054 -1.54656 0.16238 2.06622 -1.62775 0.1875 2.01935 
-1.70894 0.16238 1.97247 -1.76838 0.09375 1.93816 -1.79013 0 1.9256 
-1.4709 0.0485286 2.1099 -1.51293 0.132583 2.08564 -1.58572 0.181111 2.04361 
-1.66978 0.181111 1.99508 -1.74257 0.132583 1.95305 -1.7846 0.0485286 1.92879 
-1.41948 0.0478354 2.13959 -1.45119 0.136224 2.12128 -1.50978 0.203873 2.08746 
-1.58632 0.240485 2.04326 -1.66918 0.240485 1.99543 -1.74572 0.203873 1.95123 
-1.80431 0.136224 1.91741 -1.83602 0.0478354 1.8991 -1.5965 0 1.96522 
-1.55823 0.0441942 1.98732 -1.63477 0.0441942 1.94312 -1.48825 0 2.02772 
-1.51995 0.0883883 2.00941 -1.5965 0.125 1.96522 -1.67305 0.0883883 1.92102 
-1.70475 0 1.90272 -1.43965 0.0485286 2.05577 -1.48168 0.132583 2.03151 
-1.55447 0.181111 1.98948 -1.63853 0.181111 1.94095 -1.71132 0.132583 1.89893 
-1.75335 0.0485286 1.87466 -1.37999 0 2.09022 -1.39647 0.0956709 2.0807 
-1.44341 0.176777 2.05361 -1.51365 0.23097 2.01305 -1.5965 0.25 1.96522 
-1.67935 0.23097 1.91738 -1.74959 0.176777 1.87683 -1.79653 0.0956709 1.84973 
[...]
CELL_DATA 4608
SCALARS EQPS float
LOOKUP_TABLE default
0 0 0 0 0 0 0 0 0 
0 0 0 0 0 0 0 0 0 
0 0 0 0 0 0 0 0 0 
0 0 0 0 0 0 0 0 0 
0 0 0 0 0 0 0 0 0 
0 0 0 0 0 0 0 0 0 
0 0 0 0 0 0 0 0 0 
0 0 0 0 0 0 0 0 0 
0 0 0 0 0 0 0 0 0 
0 0 0 0 0 0 0 0 0 
0 0 0 0 0 0 0 0 0 
0 0 0 0 0 0 0 0 0 
0 0 0 0 0 0 0 0 0 
0 0 0 0 0 0 0 0 0 
0 0 0 0 0 0 0 0 0 
0 0 0 0 0 0 0 0 0 
0 0 0 0 0 0 0 0 0 
0 0 0 0 0 0 0 0 0 
0 0 0 0 0 0 0 0 0 
0 0 0 0 0 0 0 0 0 
0 0 0 0 0 0 0 0 0 
0 0 0 0 0 0 0 0 0 
0 0 0 0 0 0 0 0 0 
0 0 0 0 0 0 0 0 0 
0 0 0 0 0 0 0 0 0 
0 0 0 0 0 0 0 0 0 
0 0 0 0 0 0 0 0 0 
0 0 0 0 0 0 0 0 0 
0 0 0 0 0 0 0 0 0 
0 0 0 0 0 0 0 0 0 
0 0 0 0 0 0 0 0 0 
0 0 0 0 0 0 0 0 0 
0 0 0 0 0 0 0 0 0 
0 0 0 0 0 0 0 0 0 
0 0 0 0 0 0 0 0 0 
0 0 0 0 0 0 0 0 0 
0 0 0 0 0 0 0 0 0 
0 0 0 0 0 0 0 0 0 
0 0 0 0 0 0 0 0 0 
0 0 0 0 0 0 0 0 0 
0 0 0 0 0 0 0 0 0 
0 0 0 0 0 0 0 0 0 
0 0 0 0 0 0 0 0 0 
0 0 0 0 0 0 0 0 0 
0 0 0 0 0 0 0 0 0 
0 0 0 0 0 0 0 0 0 
0 0 0 0 0 0 0 4.8869e-05 1.15283e-05 
0 1.39329e-06 2.05261e-05 0 0 3.89429e-05 5.71154e-05 8.5531e-05 0.000109302 
0 0 0 0 0 0 0.000368716 0 0.000219327 
0.000430634 0 0 0 0 0 0 0 0 
0 0 0 0 0 0 0 0 0 
0 0 0 0 0 0 0 0 0 
0 0 0 0 0 0 0 0 0 
0 0 0 0 0 0 0 0 0 
0 0 0 0 0 0 0 0 0 
0 0 0 0 0 0 0 0 0 
0 0 0 0 0 0 0 0 0 
0 0 0 0 2.16061e-05 0 0 0 0 
0 0 6.64852e-06 1.99305e-05 3.18547e-05 1.10416e-05 0 0 0 
0 0 3.77996e-05 0 0 0 8.14549e-06 1.90101e-05 0 
8.43348e-05 0.000259694 6.73219e-05 5.07979e-06 0.000144789 1.78678e-05 0 0 8.16089e-05 
6.95879e-05 4.31748e-06 8.07859e-05 0 0 0 0 0 3.43361e-05 
0.000100388 0 2.74085e-05 0.000572409 0.000129452 0 0.000114456 0.000264551 4.55527e-05 
0 2.9366e-05 4.92362e-05 0 0 0.000265316 0.00022727 0.000224688 0.000264969 
0 0 0 0 1.2739e-05 0 0 0 0 
0 0 0 0 0 0 0 0 0.000168802 
5.68467e-06 0 1.56371e-05 5.44868e-05 2.98235e-05 9.64664e-06 0.000279041 0.000236964 0.000208707 
0.000214168 0 0.000107531 0 0 0 0 0.000558089 0.000420828 
0.000548289 0.000840365 0.000793682 0.000650177 0.000817657 0.000100464 0 0.000448183 0.000427108 
0.000637078 0.000385068 0.000418682 0 0 0 0 0 0.000391768 
0.00101269 4.20614e-07 0.00121396 0.000714067 0.0007145 0.000336475 0.000990356 0 0 
0 0 0 0 0 0.000204329 0.000208187 0.000277497 0.000266898 
0 0 0 0 0 0 0.00100195 0 0.000991231 
0.000954637 0.000615621 0.000797313 0.000694243 0.000190892 0 4.22394e-06 0 0 
0 0 0 0 0 0 0 0 0 
0 0 0 0 0 0 0 0 0 
0 1.54444e-05 0 0 0 0 0 0 0 
0 0 0 2.1621e-05 1.06485e-05 1.93551e-05 2.71417e-05 0 8.94992e-07 
0 0 0 5.06853e-05 0.000498683 1.17917e-05 0.000537393 0.000823685 0.000391608 
0.00016626 0.000523269 7.48238e-06 0 0.000311671 0.000335353 0.000377356 0.000407049 0.000447174 
0.000271424 0.000149662 0.000286335 0.000293896 0.000372411 0.000810761 0.000534676 0.000150978 0.00048199 
0.00162392 0.00186139 0.00073021 0.00178563 0.00245067 0.00239623 0.001818 0.00245374 0.0019865 
0.000500061 0.000739872 0.00192802 0.00203741 0.00182637 0.00191845 0.000539382 0.000424383 0.00043857 
0.000527129 0.000505855 0.0019897 0.00238433 0.000723597 0.00244283 0.00317289 0.00295976 0.00223073 
0.00295276 0.00255051 0.000738512 0.000719717 0.000794374 0.000783615 0.000541929 0.000630795 0.00288099 
0.00295817 0.00294969 0.00295132 0.000110152 0.000125743 0.000183074 0.000157048 0.000460173 5.12181e-05 
1.47515e-05 3.52726e-05 1.13256e-05 0.000153559 1.37224e-05 9.60618e-06 1.40366e-05 2.51073e-05 0.000472955 
0.000153391 0.000364512 0.000597408 0.000464565 0.000303426 6.65921e-05 8.15481e-05 9.66239e-05 7.73937e-05 
0.000725438 0.000733622 0.000949931 0.000757171 0.000401528 0.000613029 0.000423972 0.00029181 0.000474628 
0.00139654 0.00225819 0.00117917 0.00214034 0.00244196 0.00303912 0.00275564 0.00296901 0.00194444 
0.000587182 0.00135259 0.00134143 0.00154497 0.00128187 0.00137172 0.000363993 0.000389578 0.000312232 
0.000288587 2.83248e-05 0.000868661 0.00239126 0.000502047 0.0023656 0.00451122 0.00172361 0.00174346 
0.001718 0.00118365 4.26359e-05 0.000103089 2.84797e-05 3.97483e-05 1.35286e-05 7.75522e-06 0.00105978 
0.0033547 0.00346236 0.00152989 0.000994665 0 0 0.000836469 0.00349565 0.00455826 
0.0055338 0.00407979 0.0176136 0.0245483 0.0169124 0.0102722 0.0119173 0.0120497 0 
0 0.0018904 0.00253927 0.00180163 0.000908225 0.0159557 0.0181547 0.0243564 0.0153718 
0 0 0 0 2.73793e-05 0.00102745 0.000864507 0 0.000334519 
0.00208689 0.00062891 0 7.45711e-05 0.000345258 0.000527172 1.81447e-05 0.000488967 3.51893e-05 
1.9615e-05 0.00023129 1.29879e-05 0.000928536 0.00232829 0.000692005 0.000526912 0.000523531 0.000443945 
0.000438644 0.000438506 0.000318371 4.46171e-05 2.83626e-06 6.00939e-05 0.000976576 0.00198799 0.000800346 
0.00182162 0.00175186 0.00219937 0.00132399 0.00223941 0.00140795 0.000493473 0.00118437 0.000971548 
0.000968 0.000978201 0.000987071 0.00211128 0.00199171 0.00221477 0.00208617 0.00217344 0.00174101 
0.00186428 0.00126092 0.00184606 0.00316389 0.00397163 0.00260896 0.00401262 0.0047268 0.00503264 
0.00430927 0.00512148 0.00361654 0.00237003 0.0029676 0.00277647 0.00291827 0.00274425 0.0028341 
0.00308785 0.00311246 0.00308033 0.00299598 0.00224674 0.00346236 0.00502328 0.00293604 0.00521884 
0.00581205 0.00577792 0.00522211 0.00575758 0.00440221 0.00316669 0.00381525 0.00305325 0.00242982 
0.00211764 0.00275448 0.00397944 0.00404527 0.00400542 0.00403332 0.000109753 0.000114151 0.000102509 
8.98576e-05 0.000724926 0.0003973 0.000972437 0.000226798 0.00105139 0.00106943 0.000741375 0.00121689 
0.000587206 0.000424277 0.000706331 0.00016468 0.000627033 0.000918002 0.000790522 0.000583984 0.000722064 
0.000677187 0.000475681 0.00057443 0.00139897 0.00135028 0.00172873 0.00146147 0.000789202 0.00086886 
0.000754562 0.000646593 0.000906653 0.00163824 0.00217395 0.00145244 0.00218985 0.00224383 0.00300599 
0.00322277 0.00288326 0.00205081 0.000982891 0.00161687 0.00156007 0.00167438 0.00151584 0.00159867 
0.00155166 0.00337654 0.00314507 0.000995382 0.00233274 0.00611425 0.00395509 0.00237248 0.00533626 
0.00454688 0.00301716 0.00513874 0.00538146 0.00492936 0.00440296 0.00426743 0.000874451 0.00148184 
0.00143418 0.00140974 0.00213361 0.00261581 0.00356807 0.00655767 0.0156019 0.0207561 0.0144921 
0.0165401 0.0116949 0.0110866 0.0101312 0.0102 0.00965147 0.00940438 0.0163884 0.0200821 
0.0389376 0.0502364 0.0876308 0.0447596 0.0105022 0.010775 0.0104626 0.0106751 0.00764238 
0.0104003 0.011381 0.00845297 0.000409295 0.00190548 0.000923203 2.10191e-05 0.00104753 0.00157982 
0.00264606 0.00296925 0.00381458 0.000189347 0.000720393 0.00223684 0.000767382 0.000467326 0.000817535 
0.000686839 0.000764198 0.000357933 0.000373717 5.9088e-05 5.87436e-05 0.000155853 0.000101631 0.000113334 
0.00114158 0.00109737 0.0011651 0.00129852 0.000857187 0.000389326 0.000686122 0.000671776 0.00073057 
0.000924728 0.001179 0.00104548 0.00113923 0.00121902 0.00216579 0.00200249 0.00220773 0.00166835 
0.000925799 0.00147811 0.0010185 0.00101499 0.000944391 0.000931537 0.00280026 0.00269679 0.00289439 
0.00273187 0.00207774 0.00118344 0.00107888 0.00188951 0.00108628 0.00129127 0.00235494 0.00181661 
0.00228156 0.00302516 0.00362154 0.00279559 0.00356578 0.00199036 0.00231603 0.00321763 0.00131352 
0.00144319 0.00133837 0.00139382 0.00398652 0.00389999 0.00393105 0.00387709 0.00221128 0.00200244 
0.00347962 0.00317855 0.00351432 0.00338919 0.00360778 0.00393064 0.00357077 0.0022967 0.00291526 
0.00415493 0.00291396 0.00212615 0.00207391 0.00313684 0.0017733 0.00182481 0.0017533 0.00181965 
0.000670678 0.00053759 0.000739261 0.000800356 0.00111923 0.000567087 0.000772452 0.000518322 0.00129438 
0.001315 0.000299624 4.99487e-05 0.00067542 8.44291e-05 0.000320691 0.000186218 0.000390352 0.000504099 
0.00125524 0.00122841 0.000296284 0.000239319 0.000244875 0.000346903 0.00152712 0.00144595 0.00158259 
0.00146329 0.00119558 0.000505859 0.000413295 0.00118479 0.000333937 0.000469925 0.000972229 0.00100242 
0.000878215 0.00107397 0.00128402 0.00157437 0.00129879 0.001243 0.00132714 0.00128723 0.000796836 
0.000721383 0.000691955 0.000852152 0.00579044 0.00343383 0.00181898 0.000913467 0.0140294 0.0368516 
0.0278677 0.0154129 0.0227919 0.0283837 0.0122895 0.00948283 0.00972827 0.00880226 0.00337457 
0.00475926 0.00126609 0.00384236 0.00353997 0.00135335 0.0154049 0.0204555 0.0301016 0.0386955 
0.00148779 0.0044959 0.000848931 8.75787e-06 0.00185345 0.00887102 0.00984016 0.0040343 0.0451854 
0.0223871 0.024819 0.0261999 0.00306126 0.00121593 0.000113991 0.000167252 0.000183422 0.000923815 
0.00188378 0.000101468 0.00185465 0.00112939 0.0036204 0.00373303 0.000346135 0.000347968 0.000434725 
0.000344632 0.000183325 0.000151982 0.000243265 0.000121014 0.00048605 0.000463611 0.00083807 0.000367 
0.000872839 0.00030826 0.000307777 0.000473976 0.000308033 6.87533e-05 0.000241717 0.000170871 9.45153e-05 
0.000142661 0.000170993 0.000144309 0.00083722 0.000849662 0.000877022 0.000937757 0.000252239 0.000249045 
0.000838126 0.000452058 0.000934106 0.000467383 0.000813583 0.00127745 0.000953629 0.000991886 0.000780778 
0.000874077 0.000969566 0.000427324 0.00030415 0.00103151 0.000429589 0.000400968 0.000295204 0.000360968 
0.00129115 0.00120133 0.00136045 0.00121467 0.000760111 0.000955508 0.000900344 0.000765352 0.000769405 
0.00096756 0.00117689 0.001088 0.0011772 0.000966771 0.00121874 0.00113326 0.00128374 0.00079143 
0.000740682 0.00115978 0.000908009 0.000912025 0.000948441 0.00095063 0.00167569 0.00162002 0.00170028 
0.00155464 0.000742099 0.000798404 0.00129277 0.0011851 0.00139593 0.00156964 0.00190659 0.0016808 
0.00199124 0.00120021 0.00121972 0.00194925 0.00124082 0.00100224 0.000778929 0.00157359 0.00114574 
0.00107339 0.00100208 0.00100797 0.000208486 0.000232646 0.000255403 0.000225236 0.00088887 0.000609832 
0.000472991 8.05752e-05 0.000355034 0.00016661 0.000272799 0.000659625 0.000317418 0.000376138 0.000800287 
0.000583686 0.000852876 0.00124152 0.00101004 0.000661082 0.000840352 0.000790676 0.000745505 0.000778497 
0.00102634 0.000900551 0.00092697 0.000955249 0.00108383 0.00116765 0.000853966 0.000783517 0.000887505 
0.00056882 0.000551656 0.000921075 0.000530983 0.000281374 0.000440216 0.000751298 0.00041037 0.000274071 
0.00110977 0.00084729 0.000411285 0.000428944 0.000553407 0.000396283 0.0387525 0.0309312 0.0219388 
0.0158107 0.0127934 0.0111569 0.0253427 0.0361325 0.020872 0.00795097 0.0111434 0.0275811 
0.00825171 0.00348492 0.00211716 0.00750082 0.00123653 0.00107332 0.00278962 0.00328197 0.000626786 
0.000894133 0.000597079 0.000625465 0.00202101 0.00245687 0.000347402 0.000769496 0.000105869 0.0013389 
0.00539607 0.00377202 0.00399484 0.00552691 0.00253947 0.00443695 0.00289692 0.0015579 0.00200731 
0.000963647 0.000475755 0.000669561 0.000171098 0.000339255 0.000876422 0.000687914 0.00108035 0.000577449 
0.000177395 0.000193597 0.000161772 0.000144945 0.000223607 0.00061905 0.000409073 0.000293901 0.00036832 
0.000486495 0.000523097 0.000531083 0.000578383 0.000814298 0.00073945 0.00037101 0.000805177 0.000350988 
0.000260059 0.000603983 0.00070685 0.000814975 0.000851382 0.000761257 0.000302657 0.000244693 0.000344692 
0.00046356 0.000771084 0.000798907 0.000653019 0.00040452 0.000515482 0.000398475 0.000875453 0.000464625 
0.000227051 0.000435102 0.000404298 0.000229975 0.00049523 0.000540413 0.000836521 0.000889264 0.000450997 
0.000432472 0.000450372 0.000461052 0.000822213 0.000808137 0.000767867 0.000774681 0.000426149 0.000469755 
0.000203498 0.000241527 0.000216927 0.000635375 0.00151042 0.000821411 0.00156597 0.00159497 0.00233914 
0.00227488 0.00250574 0.00136435 0.000468478 0.00106803 0.000483863 0.000455551 0.000166794 0.000374592 
0.000958075 0.000990816 0.00102904 0.00102831 0.000395313 0.00127689 0.00244227 0.00103203 0.00299371 
0.00251037 0.00166053 0.00124126 0.00165269 0.000954881 0.00044877 0.00106755 0.000439228 0.000283119 
0.00042912 0.000787875 0.00127046 0.00221166 0.00212008 0.00135381 0.000797589 0.000800521 0.000846972 
0.000837614 0.00083883 0.00113888 0.00136296 0.00108188 0.00142164 0.00133415 0.00114077 0.00115003 
0.00117898 0.000974766 0.000668322 0.00080498 0.000655767 0.00110399 0.000828119 0.000412351 0.00135504 
0.00114355 0.00140466 0.00145608 0.000326016 0.000409815 0.00035757 0.000348178 0.000915639 0.001108 
0.000662371 0.000422916 0.00065617 0.000538312 0.000386568 0.000477797 0.000360778 0.001012 0.00104936 
0.00065395 0.000870634 0.000876338 0.000949862 0.000634542 0.000820075 0.000829477 0.000954752 0.000902509 
0.000494945 0.000441749 0.000485576 0.000556008 0.00138609 0.00244942 0.00224284 0.000935476 0.00212851 
0.00287564 0.00209607 0.00111428 0.00188747 0.00227956 0.00114151 0.000757064 0.00114003 0.00125402 
0.00135793 0.00110091 0.00239422 0.00246675 0.00266165 0.00262967 0.000513521 0.00103274 0.000775704 
0.000752568 0.00115535 0.00236557 0.0018921 0.000741089 0.00186736 0.00204263 0.00254873 0.00232045 
0.00281708 0.00232819 0.00109325 0.00116167 0.00114894 0.00145144 0.00110868 0.000855741 0.00258968 
0.00277938 0.00253583 0.00242966 0.000675211 0.000744604 0.00068895 0.000627784 0.00117442 0.00155428 
0.00126089 0.00136224 0.00147221 0.00242306 0.00107934 0.00191493 0.00212398 0.00487735 0.001035 
0.000368033 0.000684798 0.000947182 0.00117126 0.0007854 0.00245948 0.0060035 0.00545341 0.00318821 
0.000390681 0.000375405 0.000341273 0.000375386 0.00140975 0.00667378 0.00493525 0.00064184 0.0069457 
0.00739904 0.000291695 0.000579226 0.00131375 0.00107342 0.000672684 0.000708832 0.000472311 0.000508194 
0.000654509 0.000521427 0.00282556 0.00629541 0.00678891 0.00633077 0.000465804 0.000233027 0.000648396 
0.000695948 0.000523797 0.000208443 0.000342342 0.000480487 0.000171873 0.00134079 0.00149901 0.000115427 
0.00168935 0.00154576 0.00226762 0.00269924 0.00264702 0.00324226 0.00058939 0.000152145 0.00236338 
0.00190997 0.000936219 0.0013817 0.00225292 0.00222118 0.00241147 0.00235209 0.00158873 0.00353434 
0.00351974 0.00162548 0.0048201 0.0171631 0.0143153 0.00216952 0.0170202 0.0214604 0.0106228 
0.0125799 0.00293748 0.00309171 0.00155204 0.00120897 0.00498494 0.0245705 0.0171587 0.0106488 
0.00252196 0.00257579 0.00209776 0.00225242 0.00208849 0.00228167 0.00398447 0.0038591 0.00413033 
0.00355595 0.00294585 0.00346004 0.00536923 0.00503958 0.00595752 0.0039819 0.00107657 0.0012486 
0.0015722 0.00201344 0.00232759 0.00231307 0.00243479 0.00231787 0.0008202 0.0008522 0.000866494 
0.000885923 0.00154079 0.00130227 0.00109252 0.00115248 0.00173499 0.000616246 0.000305087 0.000762623 
0.000328441 0.00082965 0.00135331 0.000884745 0.000919459 0.000845459 0.00184441 0.000959883 0.00081921 
0.00077348 0.000951623 0.000884894 0.0029866 0.00301783 0.0025511 0.00248599 0.00831848 0.0230385 
0.0139672 0.0076808 0.0126393 0.0147034 0.00415008 0.00675041 0.00494271 0.00444433 0.0030791 
0.00361819 0.0029173 0.00396366 0.00448496 0.00357835 0.00933131 0.0114703 0.0142725 0.0216223 
0.00248193 0.0024072 0.00319173 0.00317004 0.00237523 0.00424912 0.00434107 0.00289315 0.00424726 
0.004164 0.00338771 0.00380877 0.00356496 0.00541086 0.00688976 0.00413996 0.00656389 0.00549201 
0.00318862 0.00462646 0.00423612 0.00358827 0.00357312 0.00365602 0.00507326 0.00767503 0.00734014 
0.00438447 0.00907679 0.0114739 0.012436 0.0104084 0.047311 0.0424525 0.0574253 0.0437581 
0.0117624 0.00840841 0.00754941 0.0123425 0.00568123 0.00625877 0.00700247 0.00413555 0.00822529 
0.00986662 0.0110853 0.00902986 0.00542838 0.0056849 0.00653971 0.0031431 0.00337232 0.00452338 
0.00791043 0.00864968 0.00981996 0.00225461 0.000482918 0.00643336 0.000467446 0.000551445 0.000159098 
0.000113011 0.000228513 0.000592323 0.00245806 0.00155878 0.00107006 0.000976285 0.000990649 0.000986945 
0.0012308 0.000881593 0.00166498 0.00209182 0.000203402 0.00058663 0.00040383 8.44894e-05 0.000412329 
0.00160205 0.00219554 0.000726538 0.00186235 0.00232035 0.00175842 0.00170278 0.00188916 0.000905721 
0.000187763 0.00292122 0.00150684 0.00153954 0.00151238 0.00168033 0.0114848 0.0182485 0.0255735 
0.00588959 0.00148853 0.00212694 0.00319197 0.00312806 0.00454791 0.00196892 0.0174958 0.0208414 
0.0202155 0.0172254 0.0110542 0.0243637 0.00356745 0.0013846 0.000794769 0.00314542 0.00314096 
0.00481933 0.00337519 0.00328747 0.00253259 0.00271589 0.00257899 0.00253283 0.00378092 0.00511395 
0.0059905 0.00362132 0.0057949 0.00639035 0.00492497 0.00434786 0.00504894 0.00480229 0.00301544 
0.00324846 0.00342479 0.00423003 0.00367492 0.00265891 0.00570733 0.00559249 0.00574311 0.00562333 
0.00104139 0.00116491 0.000985718 0.000970044 0.00374582 0.00407395 0.00332668 0.00264456 0.00388871 
0.00793485 0.00313907 0.00170232 0.00249822 0.00196693 0.00145791 0.00194883 0.00224872 0.00514569 
0.00387289 0.00174053 0.00559852 0.00564822 0.00768948 0.00498926 0.0235382 0.0160084 0.011329 
0.00800325 0.0183864 0.0293365 0.0289631 0.0277491 0.029647 0.0228685 0.0106 0.0185745 
0.0106764 0.010659 0.00747488 0.00800137 0.00616816 0.00895537 0.00808287 0.00519268 0.015257 
0.0196493 0.0236063 0.0283399 0.00384555 0.00371845 0.00371624 0.00425642 0.00482256 0.00829248 
0.00956482 0.00616632 0.00756383 0.00894542 0.00653417 0.00604149 0.00701303 0.00723428 0.00550607 
0.00513547 0.00553581 0.00577806 0.00459686 0.00436284 0.0075412 0.00736109 0.00757658 0.00753216 
0.00257944 0.00249861 0.00243336 0.00262241 0.00452272 0.0058691 0.00557787 0.00426327 0.00820782 
0.00910855 0.0101677 0.00991676 0.00801285 0.00765372 0.00330445 0.00260898 0.00307041 0.00440407 
0.00464746 0.00292346 0.00538613 0.00698292 0.00906452 0.0054653 0.00115535 0.00138434 0.00114022 
0.00115997 0.00376521 0.00650605 0.00679591 0.00373087 0.0100688 0.0230854 0.00868582 0.00170115 
0.00688874 0.00710934 0.00383418 0.00377988 0.00302572 0.00786274 0.00406616 0.00155972 0.00812784 
0.0145234 0.0198733 0.0116285 0.0018914 0.0015232 0.00154321 0.00165901 0.00287702 0.00791572 
0.008054 0.00343947 0.0110458 0.00958787 0.00431933 0.00559464 0.00259597 0.00242455 0.000578046 
0.000572733 0.000651195 0.00150053 0.00255975 0.00172455 0.0035612 0.0041666 0.00630812 0.00529786 
0.00187942 0.00254454 0.00409505 0.00198411 0.00251573 0.00179562 0.00093864 0.00184932 0.00106933 
0.000154313 0.00246163 0.00386255 0.00273807 0.00433918 0.00252326 0.00259133 0.00131199 0.00239613 
0.00273035 0.00198831 0.00200607 0.00178792 0.00226646 0.00219067 0.00571002 0.00585084 0.00563426 
0.00575 0.00532352 0.00769366 0.00947705 0.00663704 0.00956271 0.00959848 0.00818138 0.00834235 
0.00823803 0.00726194 0.0052132 0.00645439 0.00627348 0.00594582 0.00511818 0.0048655 0.00753965 
0.0073683 0.0077754 0.00766154 0.00562499 0.00911193 0.00750116 0.00523949 0.00726137 0.0075249 
0.00737572 0.00672985 0.0485045 0.030378 0.0277846 0.0304129 0.00695712 0.00508266 0.00434588 
0.00570168 0.00629115 0.00747539 0.00808088 0.00563255 0.00690224 0.00900092 0.0103818 0.00748452 
0.0298049 0.0253168 0.0208605 0.016566 0.0170462 0.0223327 0.0253379 0.0309411 0.0272498 
0.0154439 0.0140329 0.0273044 0.0142761 0.0138204 0.00956909 0.0108587 0.00806126 0.00945186 
0.0110799 0.0101714 0.0135104 0.013603 0.013713 0.0144923 0.00749097 0.00754581 0.0072453 
0.00753939 0.00817186 0.0114616 0.0121505 0.00883051 0.0119274 0.011924 0.0101324 0.0105215 
0.0102293 0.00987459 0.00737761 0.00785289 0.00739249 0.00793018 0.00793626 0.00680722 0.0106667 
0.0104525 0.0108462 0.0107459 0.0050403 0.00663961 0.00503068 0.00531698 0.00797873 0.00825117 
0.00792282 0.00693977 0.00855198 0.00812915 0.0137787 0.0069605 0.00974763 0.00895653 0.00795083 
0.00552917 0.0051807 0.00724842 0.00808585 0.00637821 0.00690119 0.00764359 0.00985486 0.00693586 
0.0404901 0.0512753 0.0429982 0.0347892 0.0529123 0.0609487 0.0675571 0.0589293 0.20142 
0.153344 0.148074 0.152576 0.049986 0.0465887 0.0405918 0.0445987 0.0310099 0.0273148 
0.0409689 0.0293751 0.0345415 0.0463278 0.0527549 0.0399403 0.00294311 0.00371111 0.00343801 
0.00264857 0.00438125 0.013618 0.0157421 0.00760827 0.0201409 0.0165204 0.0120806 0.00641318 