# vtk DataFile Version 3.0
vtk output
ASCII
DATASET UNSTRUCTURED_GRID
POINTS 17536 double
59.6987 4.60694 -4.80736 59.5474 4.54166 -4.80681 59.5183 4.68148 -4.92181 
59.6007 4.61561 -4.7899 59.4538 4.6872 -4.77364 58.2659 3.0054 -5.52053 
58.2018 2.87011 -5.53311 57.369 3.45251 -4.82533 57.4935 3.58479 -4.82463 
57.296 3.43354 -4.92219 57.7431 3.53859 -4.97101 57.8272 3.4767 -4.70191 
57.4369 3.48853 -5.04635 57.5398 3.30056 -5.00321 58.8766 3.84712 -5.3685 
59.156 3.9039 -5.24661 58.9787 3.87293 -5.39188 59.5736 3.59975 -5.2764 
59.7049 3.84873 -5.25082 59.6671 3.95307 -5.2751 59.5451 3.65892 -5.4173 
59.5059 3.8336 -5.31853 59.7012 3.79203 -5.29235 58.1342 2.68671 -4.56663 
58.1671 2.78222 -4.71165 59.2808 3.04027 -4.53625 59.2619 3.11918 -4.66138 
59.1311 3.12411 -4.69481 59.2073 3.23191 -4.64882 59.1197 3.07955 -4.96345 
59.1385 2.40894 -4.68718 59.1387 2.54456 -4.56902 59.0412 2.52143 -4.54356 
58.9987 2.308 -4.59976 58.2901 3.87956 -4.91711 58.4673 3.70579 -4.84922 
58.3416 3.51097 -4.7558 58.4747 3.51337 -4.80498 58.3909 3.55604 -4.83667 
59.0681 3.35703 -5.52895 58.9453 3.58282 -5.52072 57.8453 2.9387 -5.50292 
57.904 3.04278 -5.36834 57.5783 2.72361 -5.32895 59.4907 4.45652 -5.2042 
59.5011 4.64249 -5.0485 59.4948 4.49097 -5.06386 58.1208 4.45026 -5.47863 
58.1746 4.43726 -5.5254 58.2084 4.53699 -5.40485 58.1863 4.69846 -5.42889 
59.0241 2.44473 -5.50856 59.0238 2.33546 -5.49441 59.4273 4.55604 -4.69802 
59.225 4.62595 -4.56906 59.2783 4.68644 -4.64733 59.4302 4.67925 -4.58373 
58.4756 3.37864 -5.0346 58.513 3.22015 -4.95068 58.5994 3.2905 -4.96315 
58.4869 3.26955 -4.81574 58.3812 3.09221 -4.79889 58.133 3.01919 -5.14278 
58.1659 3.15175 -5.04766 58.4104 3.15924 -5.06386 58.3862 3.32039 -4.8971 
59.4182 2.28826 -4.50722 59.5048 2.40349 -4.54439 59.375 2.45688 -5.25806 
59.2832 2.41686 -5.40247 59.4273 2.42606 -5.52107 57.9171 4.56832 -5.17422 
57.9767 4.49122 -4.95887 58.0968 4.4906 -5.19291 59.172 4.03601 -5.07442 
59.2999 4.14024 -4.91636 59.5542 4.19919 -4.99571 58.1321 4.07475 -4.69633 
58.0381 4.21054 -4.71468 58.1096 4.02008 -4.88488 58.0142 4.18314 -5.09714 
59.0127 4.15962 -4.63638 59.0884 4.13981 -4.84309 57.9578 2.74973 -4.88814 
58.1877 2.80808 -4.96317 57.9801 2.87985 -5.33053 58.1124 2.86282 -5.42966 
57.818 4.56086 -5.52545 57.7136 4.52752 -5.49275 57.7445 4.63519 -5.51967 
58.4638 4.72542 -4.93244 57.9707 2.70155 -4.58657 57.7716 2.86457 -4.91767 
57.8492 2.69625 -4.71242 57.8437 2.8764 -4.67209 58.9624 2.45017 -4.54471 
58.9542 2.54896 -4.54334 59.3307 2.64081 -4.72016 59.4879 2.5006 -4.68082 
59.6986 2.54002 -4.70287 59.6357 2.76697 -4.66319 59.6474 2.69278 -4.57635 
59.7008 2.69197 -4.72281 59.4464 3.15392 -4.68535 59.3699 3.03244 -4.89477 
59.3963 3.04568 -4.68716 57.7815 3.85228 -4.68539 57.7575 3.72902 -4.92284 
57.6798 3.95482 -4.77993 59.0072 3.41132 -4.93473 58.954 4.53719 -5.23349 
58.9095 4.68619 -5.30555 58.094 3.98421 -5.45582 59.599 3.18552 -4.68725 
59.4965 3.21578 -4.80217 59.5542 3.32511 -4.74226 59.7056 3.15916 -4.72148 
59.6977 3.324 -4.72119 59.1685 4.70249 -4.91057 59.2098 4.70328 -4.84306 
58.0757 3.24604 -5.50287 57.9699 3.27794 -5.5048 57.9895 3.15432 -5.53186 
58.36 2.49173 -4.5914 59.384 3.52053 -4.56263 59.3882 3.38621 -4.5233 
59.5228 3.47155 -4.53693 58.2948 3.21776 -4.74217 58.164 3.17233 -4.78136 
58.343 3.14379 -4.63252 58.0096 4.6751 -4.93269 58.1681 4.69652 -4.80666 
59.7019 3.60663 -5.04336 59.714 3.50429 -5.07184 57.7102 4.1871 -4.54777 
57.7119 4.39592 -4.72208 57.8483 4.32152 -4.67432 57.889 4.19053 -4.84337 
57.6649 3.87269 -5.52513 57.5732 3.90055 -5.51755 57.7292 3.88328 -5.5267 
57.6118 3.94269 -5.44363 57.6569 3.86294 -5.3927 57.8448 2.32391 -4.74816 
58.0203 2.33412 -4.70737 59.6257 4.37019 -5.01336 59.6731 4.41109 -4.89222 
57.4487 4.52219 -4.7623 57.5023 4.39779 -4.52957 57.4917 4.29643 -4.65295 
58.4897 3.53753 -4.99601 58.4903 3.67892 -4.92716 58.2214 3.89336 -5.16382 
58.4739 3.82643 -5.0389 58.3765 3.6938 -5.52195 58.2967 3.8197 -5.49872 
58.3713 3.7361 -5.17767 58.4066 3.90682 -5.34431 58.6234 3.72699 -4.62169 
57.2914 3.5581 -4.9033 57.7328 3.6876 -4.66374 57.6162 3.78554 -4.86151 
57.4609 3.78633 -4.87573 57.4217 3.62042 -4.96369 58.1493 3.22967 -5.53609 
58.1098 3.35065 -5.494 57.9682 3.24976 -5.37977 58.0876 3.38478 -5.25563 
58.1974 3.13641 -4.60614 58.7341 4.57848 -4.67314 58.6511 4.45268 -4.67119 
57.3045 2.76581 -5.26975 57.7859 3.33973 -4.84862 57.8001 3.33063 -4.70027 
58.1887 3.55139 -4.59588 58.483 3.80294 -4.75616 58.7844 3.73994 -4.61253 
59.3099 3.93632 -4.63823 57.4441 3.86215 -5.12385 57.4761 3.96064 -5.26143 
57.3013 3.97147 -5.21554 57.44 3.99587 -5.06336 57.2933 3.86126 -4.82944 
57.3925 3.71511 -4.93311 58.6416 2.33121 -5.32857 57.4478 2.98688 -5.52872 
57.4016 2.90908 -5.37685 58.0718 4.57167 -4.65444 58.1885 4.53381 -4.81629 
58.1327 4.67871 -4.73389 58.1845 4.70134 -4.63569 57.3327 2.36313 -4.82758 
59.0537 4.58951 -4.582 58.9408 4.66352 -4.59194 57.3507 3.38909 -5.20232 
57.3065 3.37068 -5.10045 57.3052 3.21143 -5.06382 58.8434 4.41739 -5.39052 
59.6579 3.2835 -5.13913 58.9105 3.6518 -5.41089 59.0747 3.57344 -5.30007 
59.0767 3.73084 -5.36741 59.1867 2.33375 -4.69257 59.042 2.41545 -4.63606 
57.7196 2.33475 -5.12655 57.8131 2.44886 -5.2492 57.8109 2.30222 -5.34293 
57.7472 4.62955 -5.42573 58.3896 2.59518 -4.59546 58.3102 2.6867 -4.58765 
58.7725 4.55877 -5.06872 58.7168 4.55845 -4.93603 58.6798 4.39581 -4.89575 
59.707 4.36219 -4.80013 59.5666 4.58576 -4.90093 59.5712 4.63457 -4.66315 
58.0546 3.65462 -4.65866 57.8707 3.86022 -4.56694 57.8726 3.78856 -4.56838 
58.0808 3.71311 -4.8736 57.9916 3.69781 -4.7115 57.8765 3.79997 -4.71398 
57.8803 3.62386 -4.71496 57.7711 3.60266 -4.73993 59.6347 4.27387 -5.48727 
59.7006 4.22384 -5.46077 59.7013 4.13461 -5.36873 58.5558 4.18689 -5.50534 
58.8627 3.96823 -5.16714 58.7548 4.04418 -5.39506 58.8992 4.06817 -5.36974 
58.7197 3.97874 -5.2213 58.5441 3.92315 -5.35451 58.7052 4.24513 -5.39353 
58.6089 4.11446 -5.33634 59.4863 4.46839 -5.42137 59.5284 4.58591 -5.51561 
59.5713 4.44812 -5.32002 59.6871 4.46428 -5.408 59.6996 4.60905 -5.4283 
58.8078 3.20075 -4.61548 58.8106 3.31371 -4.58859 58.8915 3.3054 -4.71461 
57.5881 4.45978 -4.61494 57.7071 4.37044 -4.57156 57.7387 4.53382 -4.56952 
57.6362 4.67862 -4.62128 57.7101 4.50249 -4.70946 57.6154 4.61334 -4.73392 
59.6913 3.08508 -4.69033 59.5331 3.88094 -5.00631 59.3735 3.94066 -5.03286 
59.3712 3.81364 -4.81917 59.7079 3.94191 -4.85582 59.54 3.81009 -4.89161 
59.6251 3.79136 -4.81331 59.2929 3.47067 -4.51152 59.6147 3.12321 -4.62139 
59.681 2.78993 -5.1762 59.6221 2.87407 -5.239 58.8909 2.36669 -5.44739 
57.4411 3.86449 -5.45905 57.3883 3.72255 -5.52153 57.4776 3.7415 -5.38795 
57.3606 2.63483 -4.52331 57.6453 4.21979 -5.42515 57.5892 4.08884 -5.35763 
57.7601 4.16307 -5.2278 57.6211 3.95144 -5.0653 57.7745 4.10728 -4.97158 
57.8348 4.3429 -5.37736 59.5842 4.69396 -5.33728 57.9078 2.30691 -4.52987 
57.9826 2.38389 -4.55775 59.4593 3.44186 -5.53329 59.4528 3.57797 -5.51836 
59.3738 4.67804 -5.05377 59.2058 4.51412 -4.98628 59.2728 4.31388 -5.08659 
59.1702 4.55254 -5.19883 59.2067 4.69156 -5.18811 59.1287 4.69806 -5.09324 
59.0602 3.60488 -4.54397 57.4977 3.38728 -5.3957 57.3168 3.33514 -5.43275 
57.3237 3.57911 -5.48788 58.8825 3.30869 -5.16537 59.106 3.24872 -5.0762 
58.2807 4.68017 -5.04744 58.4144 4.30197 -5.13217 58.2501 4.39437 -5.04518 
58.4445 4.55702 -5.03463 58.2295 4.59818 -5.21411 58.16 4.52958 -5.28947 
58.3065 4.51758 -5.10777 57.808 3.96969 -4.87876 57.7694 3.82819 -5.17078 
57.9196 3.80552 -5.04947 58.1543 3.73745 -5.05938 58.032 3.721 -5.18572 
57.9837 3.75329 -5.39432 57.9484 3.88335 -5.37823 57.8911 3.94487 -5.14774 
57.777 3.89357 -5.37852 57.9622 2.39028 -5.18793 58.1186 2.50637 -5.26671 
57.8796 2.4642 -5.00688 58.0669 2.44129 -5.12725 58.5803 4.64511 -4.83436 
58.6692 4.5401 -4.81966 58.4856 4.60455 -4.78702 58.5949 4.29928 -4.64541 
58.5798 4.16084 -4.7004 57.446 3.01157 -4.62024 57.3019 3.08599 -4.59776 
59.1915 2.93015 -5.1621 59.1478 2.81079 -4.96179 59.1961 2.70014 -5.15274 
59.2205 2.44409 -5.0256 59.5426 2.58339 -5.05764 59.4959 2.63663 -4.856 
57.9529 3.22074 -5.18354 58.0004 3.10269 -4.91486 58.0193 3.29706 -4.89575 
59.629 3.68976 -5.5295 58.1617 3.60109 -4.70344 58.2021 3.70327 -4.74524 
58.2146 3.50574 -4.83503 58.1496 3.51113 -4.7393 57.6221 2.44506 -5.48181 
57.4682 2.447 -5.47771 57.5083 2.3231 -5.50382 57.6617 2.38554 -5.54058 
58.7326 3.51898 -4.88073 58.7807 3.52614 -4.80193 59.6157 3.89005 -5.49719 
59.7048 3.78553 -5.49828 59.6941 3.75707 -5.36953 57.4319 2.51261 -5.22959 
57.373 2.39666 -5.15622 57.2916 2.45645 -5.12652 57.3628 4.19714 -4.52665 
58.3226 2.44943 -5.32943 58.4464 2.32895 -5.3903 58.3419 2.3243 -5.3248 
58.2859 2.37431 -5.5294 58.2561 2.46106 -5.40254 58.2651 2.33817 -5.42995 
59.6291 2.35637 -5.29144 59.665 2.41131 -5.49828 57.9239 2.33505 -5.47357 
57.7364 2.33546 -5.49602 58.1308 3.82245 -4.71753 58.0201 3.89872 -4.75829 
57.2923 2.63371 -4.80817 57.3019 2.7184 -4.81263 57.3687 2.75824 -4.81444 
57.4272 2.59708 -4.96301 57.5248 2.57447 -4.60823 57.4221 2.60347 -4.76368 
57.4136 2.60227 -4.67284 58.3807 4.62577 -5.08855 58.1193 2.41076 -4.96665 
58.1481 2.57859 -4.88893 58.2503 2.55563 -4.94024 58.1117 2.31255 -4.85647 
58.195 2.29381 -4.92137 58.8739 3.54339 -4.89135 59.301 2.67806 -5.402 
58.47 2.463 -5.22742 58.4187 2.32712 -5.19046 57.5939 4.20326 -5.08999 
57.4666 4.1729 -5.0262 57.5867 4.05984 -5.17954 57.4295 4.0986 -5.19697 
57.3027 4.11868 -5.2096 57.4083 4.19266 -5.17044 57.4453 4.3214 -4.97704 
57.7651 4.19064 -4.71277 57.8295 4.08063 -4.56956 57.7075 3.99308 -4.66169 
57.9315 4.05292 -4.77984 59.4054 4.56918 -5.03479 59.7011 4.12547 -4.82717 
59.6867 4.03078 -4.7475 59.6624 4.17852 -4.89637 59.6428 4.06818 -4.86173 
58.6403 3.9567 -4.8908 58.6905 3.72483 -4.84629 58.7345 4.28442 -4.51786 
58.8308 4.27061 -4.5241 58.923 4.30215 -4.86664 58.9262 4.39369 -4.63125 
58.7906 4.41092 -4.74549 59.3153 3.19998 -4.5293 57.3344 3.28558 -4.7648 
[...]
POINT_DATA 17536
SCALARS Pressure_Head double
LOOKUP_TABLE default
-10.1997 -10.2002 -10.0853 -10.2172 -10.2334 -9.48453 -9.47116 -10.1817 -10.1824 
-10.0849 -10.0361 -10.3052 -9.96071 -10.0039 -9.63869 -9.76045 -9.6152 -9.73066 
-9.75625 -9.73197 -9.58974 -9.68855 -9.71472 -10.4437 -10.2954 -10.4721 -10.3457 
-10.3122 -10.3582 -10.0436 -10.3199 -10.4383 -10.4648 -10.4074 -10.0899 -10.1578 
-10.2513 -10.2021 -10.1704 -9.47571 -9.48446 -9.50293 -9.63874 -9.67812 -9.80286 
-9.95856 -9.9432 -9.52798 -9.47918 -9.60218 -9.57802 -9.49732 -9.51209 -10.309 
-10.4388 -10.3597 -10.4232 -9.97246 -10.0564 -10.0439 -10.1913 -10.2082 -9.86429 
-9.9594 -9.9432 -10.11 -10.5012 -10.4629 -9.749 -9.60462 -9.4841 -9.83284 
-10.0482 -9.81415 -9.93264 -10.0907 -10.0114 -10.3107 -10.2924 -10.1222 -9.90993 
-10.3707 -10.164 -10.1189 -10.0439 -9.67654 -9.57746 -9.47915 -9.51353 -9.4854 
-10.0746 -10.4205 -10.0894 -10.2947 -10.3348 -10.4637 -10.4654 -10.2869 -10.3262 
-10.3042 -10.3439 -10.4311 -10.2842 -10.3217 -10.1123 -10.3199 -10.3216 -10.0842 
-10.2271 -10.0723 -9.77357 -9.70151 -9.55122 -10.3198 -10.2049 -10.2648 -10.2856 
-10.2859 -10.0965 -10.164 -9.5033 -9.50099 -9.47257 -10.4182 -10.4444 -10.4859 
-10.4721 -10.2649 -10.2257 -10.3755 -10.0744 -10.2004 -9.9637 -9.93522 -10.4611 
-10.285 -10.3327 -10.1637 -9.47963 -9.48737 -9.47796 -9.56363 -9.61436 -10.2589 
-10.2996 -9.9937 -10.1148 -10.2448 -10.4796 -10.3541 -10.011 -10.0799 -9.84324 
-9.96816 -9.48324 -9.50721 -9.82939 -9.66276 -10.3855 -10.1038 -10.3433 -10.1456 
-10.1313 -10.0434 -9.4683 -9.51239 -9.62735 -9.75144 -10.4037 -10.3339 -10.3359 
-9.73732 -10.1584 -10.3068 -10.4147 -10.2509 -10.3943 -10.3688 -9.88321 -9.74564 
-9.79153 -9.9437 -10.1776 -10.074 -9.6785 -9.47595 -9.63024 -10.3525 -10.1908 
-10.2732 -10.3709 -10.1795 -10.4252 -10.4152 -9.80475 -9.90661 -9.94324 -9.61664 
-9.86794 -9.59629 -9.707 -9.63971 -10.3145 -10.371 -9.88051 -9.75786 -9.66414 
-9.58132 -10.4139 -10.4224 -9.93835 -10.071 -10.1113 -10.2069 -10.1061 -10.3439 
-10.3477 -10.4427 -10.4413 -10.1335 -10.2955 -10.293 -10.2921 -10.2671 -9.51878 
-9.54618 -9.63841 -9.50039 -9.83992 -9.61205 -9.63735 -9.78576 -9.65255 -9.6136 
-9.67072 -9.58579 -9.48965 -9.68706 -9.59902 -9.57871 -10.3918 -10.4194 -10.2924 
-10.3921 -10.4357 -10.4375 -10.3852 -10.2976 -10.2732 -10.3167 -10.0007 -9.9742 
-10.1879 -10.1512 -10.1155 -10.1937 -10.4986 -10.3857 -9.83086 -9.76806 -9.55966 
-9.54774 -9.48385 -9.61911 -10.4852 -9.58195 -9.64948 -9.77926 -9.94177 -10.0355 
-9.62968 -9.66979 -10.4793 -10.451 -9.47127 -9.48691 -9.9533 -10.0208 -9.92047 
-9.80824 -9.81895 -9.91382 -10.4636 -9.61135 -9.57438 -9.51878 -9.8417 -9.93086 
-9.95962 -9.87489 -9.96189 -9.97243 -9.79296 -9.71759 -9.89929 -10.1283 -9.83628 
-9.95759 -9.94768 -9.82134 -9.61273 -9.62886 -9.85932 -9.62858 -9.81914 -9.74034 
-10.0002 -9.87981 -10.1727 -10.1874 -10.22 -10.3616 -10.3066 -10.3868 -10.4091 
-9.84496 -10.0453 -9.85433 -9.98146 -9.94942 -10.1511 -9.82352 -10.0922 -10.1113 
-9.47507 -10.3035 -10.2618 -10.172 -10.2678 -9.52468 -9.5287 -9.50207 -9.46297 
-10.1193 -10.1981 -9.50894 -9.50771 -9.63753 -9.77747 -9.85085 -9.88054 -10.4826 
-9.67769 -9.61677 -9.68226 -9.47552 -9.60456 -9.57723 -9.71563 -9.50773 -9.53321 
-9.51013 -10.2895 -10.2487 -10.1989 -10.1944 -10.1926 -10.044 -10.3988 -10.2434 
-10.3342 -9.91851 -10.0404 -10.1181 -10.0668 -10.1506 -10.0857 -10.1157 -9.60514 
-9.77964 -9.8166 -9.91707 -9.98086 -9.82752 -9.81009 -9.79746 -9.83662 -10.03 
-10.2943 -10.4379 -10.3454 -10.2272 -9.97227 -10.1799 -10.2596 -10.1107 -10.1453 
-10.1163 -10.1608 -10.4915 -10.4844 -10.1404 -10.3758 -10.2616 -10.4793 -10.2423 
-10.3136 -10.1426 -10.0624 -10.3439 -10.2028 -10.3393 -10.4157 -9.99784 -10.0441 
-9.47347 -9.76391 -10.2343 -10.4485 -10.2553 -10.4526 -9.5127 -10.2844 -9.46507 
-9.63208 -9.62393 -9.61298 -9.8277 -9.87109 -9.94391 -10.3017 -10.4276 -10.2885 
-10.2648 -10.3179 -9.60065 -9.70877 -9.50039 -10.4013 -10.1368 -10.2179 -10.0808 
-9.79161 -9.64079 -9.48111 -9.66726 -9.47012 -9.48841 -9.58879 -9.4838 -9.50113 
-9.46643 -9.47551 -10.2464 -10.2072 -10.366 -10.303 -10.458 -10.4783 -10.4832 
-10.3703 -10.2102 -9.84373 -9.64372 -9.59355 -9.66931 -9.49971 -9.59086 -9.80766 
-9.77842 -9.89403 -10.0695 -10.1353 -9.74282 -9.59236 -9.62058 -9.46257 -9.48081 
-10.0081 -9.94996 -9.96131 -10.0477 -9.87767 -9.95219 -9.46134 -9.47824 -9.49955 
-9.48298 -9.63113 -9.84924 -9.80248 -9.64463 -9.65317 -9.46513 -10.3803 -9.90496 
-9.76468 -9.82085 -9.70967 -10.0724 -10.3275 -10.3168 -10.2323 -10.0022 -9.98886 
-9.99024 -9.7614 -10.115 -10.0908 -10.1977 -10.2933 -10.0894 -10.3259 -10.4406 
-10.1942 -10.083 -10.1181 -9.79881 -9.94184 -9.85202 -9.54995 -9.47925 -10.454 
-10.3221 -10.436 -10.1165 -10.2831 -10.2149 -9.96916 -9.6192 -9.65436 -9.6328 
-10.3325 -10.4339 -10.4558 -10.4667 -10.4468 -10.3884 -9.83319 -9.77028 -9.65084 
-9.56292 -9.62997 -9.74373 -9.63894 -10.3543 -10.3465 -10.2229 -9.49756 -9.46774 
-9.54861 -9.60022 -9.64168 -9.52325 -9.47221 -9.93591 -9.95023 -9.90925 -9.9111 
-9.92011 -10.108 -10.0403 -9.87894 -9.56355 -9.46088 -9.56026 -9.46975 -9.47166 
-9.51142 -9.48983 -9.46142 -10.369 -10.0447 -10.0943 -9.93805 -9.61756 -9.67198 
-9.48275 -9.60569 -9.61351 -9.58998 -9.75626 -9.61526 -9.68975 -9.88966 -9.87308 
-9.923 -9.61713 -9.76045 -9.86217 -9.82235 -9.75742 -9.75588 -10.187 -9.99715 
-9.77667 -9.82414 -9.69397 -9.84054 -9.49929 -9.90776 -9.88463 -9.86723 -9.47061 
-9.5363 -9.6857 -9.5211 -9.49556 -9.47711 -10.496 -10.5024 -10.4533 -10.4634 
-10.3866 -10.4232 -10.457 -10.4757 -10.4922 -10.4641 -9.51705 -9.81071 -9.71529 
-9.76824 -9.4611 -9.58599 -9.62618 -9.5507 -9.67162 -10.1163 -10.2992 -10.3493 
-10.256 -9.91934 -10.0355 -10.3205 -10.4779 -9.47369 -9.50669 -9.54089 -9.48729 
-10.1327 -10.0213 -10.1781 -9.80102 -9.94429 -10.0111 -9.47825 -9.73736 -9.81583 
-9.71573 -9.75474 -9.8579 -9.49358 -9.53052 -9.59739 -9.58807 -10.0933 -9.97952 
-10.0561 -10.2233 -10.233 -10.1659 -10.4746 -10.3121 -10.4005 -10.4321 -10.2852 
-10.318 -10.3163 -10.4654 -9.75309 -9.77286 -9.67677 -9.70533 -9.47558 -10.1557 
-10.3732 -10.422 -9.78493 -9.65805 -9.69692 -9.51452 -9.5083 -9.47077 -10.1117 
-9.91448 -9.93906 -9.97797 -9.84355 -10.1398 -9.99002 -9.86774 -10.1361 -10.012 
-10.0561 -10.46 -10.4513 -10.2088 -10.3187 -10.3603 -10.4491 -10.3375 -10.1625 
-10.1482 -10.2452 -10.3556 -9.62024 -9.49859 -10.2962 -10.3983 -10.3971 -10.067 
-9.9626 -10.26 -9.47542 -9.46684 -9.47513 -10.4272 -10.4595 -9.4669 -9.87456 
-10.48 -10.3952 -9.76574 -9.97111 -10.1219 -10.0223 -9.51526 -10.1581 -10.306 
-10.258 -10.2264 -10.0411 -10.2694 -10.3763 -10.4094 -10.4184 -9.57202 -9.476 
-9.47958 -9.58078 -9.59215 -9.56254 -9.78503 -9.72309 -9.66236 -10.3849 -10.2178 
-10.0846 -10.2841 -10.1887 -10.136 -10.2803 -10.4805 -9.46085 -9.61404 -9.74183 
-9.61342 -9.47849 -9.58306 -10.2838 -10.2742 -10.2507 -10.3504 -9.78564 -9.48882 
-9.49543 -10.1818 -10.3145 -10.3785 -10.3434 -9.60411 -9.52014 -9.45916 -9.46283 
-9.47461 -9.60777 -9.84285 -9.64706 -9.90593 -9.59108 -9.61175 -9.46995 -10.1045 
-10.1032 -10.1272 -10.2462 -10.2157 -10.115 -10.4051 -10.0398 -9.92869 -10.0333 
-10.1015 -9.46772 -10.3669 -9.53807 -9.55423 -9.45855 -9.52947 -10.3073 -10.274 
-10.2132 -10.2228 -10.3632 -10.2227 -10.3141 -10.4158 -10.396 -10.4165 -10.3636 
-10.3519 -9.94555 -9.82521 -9.79837 -10.1883 -10.306 -10.2952 -10.273 -10.0857 
-10.1247 -10.3194 -10.2346 -10.4099 -10.3883 -9.46716 -9.659 -9.72508 -9.56485 
-9.62369 -9.47776 -9.55263 -9.48411 -10.2546 -10.3562 -10.4317 -9.90693 -9.60215 
-9.57661 -9.59574 -9.78249 -9.71031 -9.62935 -10.4959 -10.3506 -10.4518 -9.53062 
-9.59439 -10.2952 -10.3395 -10.4379 -10.0635 -10.1507 -10.1834 -10.1678 -10.2129 
-10.0682 -10.2331 -10.1159 -10.3002 -10.3488 -10.2924 -10.3222 -10.4014 -9.73065 
-9.56431 -9.57239 -9.48323 -10.4686 -10.2564 -10.026 -10.1754 -10.2783 -10.3139 
-10.2993 -10.2149 -10.3002 -10.3823 -10.2585 -10.3695 -10.381 -10.365 -10.0122 
-9.56752 -9.66232 -9.75483 -9.65564 -9.50457 -9.59123 -9.46266 -9.68355 -9.58885 
-9.65601 -9.58164 -9.48183 -9.55646 -10.0834 -10.366 -10.3586 -10.3308 -10.1442 
-9.93767 -10.0436 -10.2936 -10.3489 -10.4127 -10.482 -9.83263 -9.58122 -9.60102 
-10.2702 -10.1532 -10.0763 -10.2374 -10.243 -10.1134 -10.0287 -10.1331 -9.9279 
-9.98827 -9.96107 -10.1937 -10.2093 -10.0284 -10.1212 -10.0517 -10.034 -10.447 
-9.68473 -9.63824 -9.4764 -9.74629 -9.60453 -9.65531 -9.63542 -9.65184 -9.67708 
-9.95012 -10.1186 -10.4309 -10.4243 -10.4223 -10.4683 -10.4581 -10.1088 -9.55643 
-9.53177 -9.58376 -9.64159 -9.64245 -9.47306 -9.47339 -9.83437 -9.75888 -9.83917 
-9.75179 -9.56885 -9.64647 -9.49626 -9.68187 -9.72669 -9.62475 -9.61614 -9.46716 
-10.3287 -10.4507 -9.88878 -9.83223 -9.72564 -9.93487 -9.5695 -9.64596 -9.51623 
-9.57078 -9.75202 -9.92293 -9.90643 -9.84088 -9.78873 -9.87301 -10.0078 -10.1223 
-10.1566 -10.1464 -10.3912 -10.2611 -10.4823 -9.59252 -9.50552 -9.73037 -9.65139 
-9.76524 -9.4825 -9.53269 -9.46097 -9.50357 -9.47066 -9.50058 -9.74827 -9.6839 
-9.61964 -9.62953 -9.68915 -9.69109 -9.70336 -9.66643 -9.46744 -9.46086 -9.47761 
-9.511 -10.3462 -10.4714 -10.4515 -10.4081 -10.4497 -10.4667 -10.4854 -9.62333 
-9.7963 -9.61701 -9.47054 -9.60315 -9.78297 -9.85554 -9.7386 -9.76509 -9.8086 
-9.88289 -10.2533 -9.59589 -9.51542 -9.89297 -9.64972 -9.75172 -9.61927 -10.3403 
-10.3082 -10.3739 -10.2757 -10.2232 -10.3401 -10.4694 -10.2951 -10.3486 -10.4859 
-10.364 -10.4729 -9.66521 -9.75429 -10.308 -10.3248 -10.2492 -10.4779 -10.3917 
-10.3447 -9.71306 -10.2455 -9.88256 -9.90891 -9.82921 -9.87787 -9.90758 -9.9982 
-10.0049 -10.2853 -10.3351 -10.4098 -10.4705 -10.4685 -10.3017 -10.3184 -10.4926 
-10.377 -9.73945 -9.60856 -9.83387 -9.61278 -9.70728 -9.80894 -9.72605 -9.63645 
-9.63625 -9.61042 -9.55694 -9.73319 -9.50956 -9.49193 -9.51961 -10.428 -9.48006 
-9.47873 -9.45446 -9.77841 -9.80645 -9.59984 -9.66264 -9.74466 -9.89116 -10.148 
-10.0016 -10.1641 -10.3244 -10.2291 -10.097 -10.1574 -10.2837 -10.3567 -10.3272 
-10.4412 -10.3504 -10.0957 -10.2264 -10.3784 -10.3316 -10.1784 -10.1764 -10.2644 
-9.75662 -9.54441 -9.6581 -9.54887 -9.60518 -9.59382 -9.71296 -9.60457 -9.576 
-9.67129 -10.4039 -9.48829 -9.47958 -10.0316 -9.71567 -9.59891 -9.60492 -9.79385 
-9.66093 -9.46738 -9.76942 -9.59051 -9.57555 -9.72845 -9.87162 -9.76227 -9.83784 
-9.75454 -9.70303 -9.58416 -9.79673 -9.74396 -9.63924 -9.6331 -9.71212 -10.3755 
-10.278 -10.3957 -10.222 -10.3766 -10.2724 -9.59454 -9.60303 -9.66458 -9.60018 
-9.48455 -9.98326 -10.0868 -9.98231 -10.0686 -9.97207 -10.1725 -10.0685 -10.495 
-10.2354 -10.2991 -10.1555 -10.1327 -10.4814 -10.3381 -10.3819 -10.341 -9.57379 
-9.62953 -9.55011 -9.48071 -10.2574 -10.3493 -9.46563 -9.83798 -9.82693 -9.91588 
-9.5595 -9.52077 -9.64934 -9.66763 -9.79858 -9.62168 -9.77324 -9.52778 -9.63747 
-10.353 -9.5953 -9.69452 -9.70736 -9.72942 -9.64978 -9.61808 -9.51606 -9.46176 
-10.0358 -10.123 -10.0632 -10.1087 -10.3035 -10.3281 -10.1619 -10.1756 -10.0203 
-9.93509 -9.88435 -9.90025 -9.96885 -10.1175 -10.1453 -10.0085 -9.72228 -9.85902 
-9.86723 -9.88742 -9.76044 -10.1961 -9.96271 -9.97874 -9.49233 -10.3457 -10.3719 
-10.3392 -10.4912 -9.46667 -9.51985 -10.4396 -10.4154 -10.4646 -10.3834 -10.4536 
-9.83451 -9.76431 -9.60864 -9.74735 -9.79721 -10.4809 -10.428 -10.3525 -10.1048 
-10.3811 -10.4803 -10.4757 -10.2616 -10.215 -10.3741 -10.2044 -10.2757 -10.495 
-10.5013 -10.4573 -9.69172 -9.73247 -9.77939 -9.66188 -9.69604 -9.70383 -9.58772 
-10.3201 -10.3708 -10.2658 -10.3302 -10.3739 -10.4646 -9.48102 -10.0748 -9.56996 
-10.0537 -10.2426 -9.66443 -9.53948 -10.0627 -10.0346 -9.89722 -9.86251 -9.86975 
-9.84909 -9.78619 -9.99893 -9.96786 -10.1245 -10.2134 -10.1353 -10.3254 -10.1189 
-10.2385 -10.3248 -10.3816 -10.1344 -9.86541 -10.3199 -10.3133 -10.3446 -10.0541 
-9.83768 -9.98905 -9.99225 -10.1559 -10.1075 -10.3808 -10.3335 -10.2343 -9.97644 
-9.96428 -9.94067 -9.99523 -10.207 -10.2461 -10.3623 -10.3369 -10.1413 -10.0699 
-10.0681 -10.0213 -9.76405 -9.96877 -10.0965 -10.1543 -9.70754 -9.84982 -9.75823 
-9.70336 -10.0685 -10.001 -9.90147 -9.96774 -9.88955 -10.3858 -10.4276 -10.2556 
-10.369 -10.4681 -10.3715 -9.69975 -9.6463 -9.84851 -9.70823 -9.74365 -9.80702 
-9.71559 -9.55672 -9.57319 -9.50507 -9.6003 -9.83042 -9.79014 -9.65281 -9.759 
-9.63572 -10.0501 -10.1454 -10.2946 -10.2402 -10.424 -10.2363 -10.2054 -10.1292 
-10.2951 -10.2554 -10.2964 -10.4319 -10.3978 -9.72496 -9.7283 -9.64965 -10.4385 
-10.5042 -10.4465 -10.4881 -10.4508 -10.2824 -10.3367 -10.3195 -10.3615 -10.0652 
-9.67761 -9.72122 -9.62824 -9.68418 -9.523 -9.45644 -9.73969 -9.83182 -9.7145 
-9.71921 -9.5512 -9.83131 -9.65242 -9.6931 -9.61679 -9.71749 -9.66495 -10.4636 
-9.49797 -10.4303 -9.47107 -9.67145 -9.57471 -9.54444 -9.61834 -9.48742 -9.83627 
-9.84671 -9.75365 -9.75632 -9.58109 -10.4544 -9.72735 -9.63 -9.51027 -9.65605 
-9.46747 -9.66688 -9.57695 -10.3974 -10.4144 -10.4052 -9.80844 -9.90649 -9.88023 
-10.0038 -9.58985 -9.63039 -9.76044 -10.1039 -9.50828 -10.2602 -10.2935 -10.3694 
-10.3019 -10.2582 -10.2459 -10.3122 -10.4055 -10.3811 -10.3958 -10.4578 -9.70587 
-9.85429 -9.60318 -10.0661 -9.97994 -9.8189 -9.89982 -10.2112 -10.263 -10.1746 
-10.2738 -10.163 -9.64765 -9.5842 -9.74073 -9.6169 -9.77951 -9.97426 -9.86672 
-9.90558 -9.61258 -9.87957 -9.69255 -9.97053 -10.161 -10.033 -10.3708 -10.4364 
-10.1359 -10.1966 -10.258 -10.2561 -10.3857 -9.97071 -9.93044 -9.89613 -9.75863 
-9.67763 -9.65392 -9.73223 -9.6013 -9.65018 -9.58053 -9.64244 -9.63904 -9.57072 
-9.55003 -9.6641 -9.69413 -9.47643 -9.48437 -9.58819 -9.64625 -10.0257 -9.92839 
-9.70252 -9.78984 -9.8936 -9.90064 -9.64201 -9.77419 -9.90346 -10.007 -10.0149 
-10.1949 -10.3871 -10.4032 -10.3341 -10.3886 -10.2746 -10.1042 -10.3557 -10.2297 
-10.1393 -10.3262 -9.68913 -9.55547 -9.66033 -9.70728 -9.79259 -9.54196 -9.63501 
-9.57758 -9.65596 -9.69285 -9.92088 -9.55579 -9.71804 -9.57132 -9.64136 -9.54949 
-9.4664 -9.48315 -9.46202 -9.56771 -9.76942 -9.87632 -9.91396 -10.2249 -10.0726 
-10.2482 -10.0232 -10.1398 -10.1348 -10.0848 -10.184 -9.94192 -10.2261 -10.3867 
-10.1619 -10.3169 -10.1818 -10.222 -10.2708 -10.2281 -10.2361 -10.166 -10.1338 
-10.2425 -10.133 -10.0977 -10.082 -9.91471 -9.8841 -10.3454 -10.0432 -9.89387 
-9.98672 -9.64816 -9.58615 -9.78557 -9.84237 -9.64981 -9.61503 -9.74178 -9.81052 
-9.70593 -9.7849 -9.68761 -9.62046 -9.69396 -9.61039 -10.4293 -10.2432 -10.2693 
-10.3434 -10.3237 -10.3374 -10.2515 -10.1161 -10.4792 -10.4808 -10.1037 -10.081 
-10.1515 -10.1967 -9.60966 -9.59667 -9.60481 -9.62312 -9.7579 -9.68503 -9.76919 
-9.75092 -9.86657 -10.0048 -9.85711 -9.89445 -9.46244 -9.47752 -10.2436 -10.4536 
-10.3792 -10.0899 -10.0012 -9.97244 -10.008 -10.2628 -10.1496 -10.2983 -10.2253 
-9.90582 -9.94039 -9.95543 -10.0552 -10.0156 -10.176 -9.80185 -9.77725 -9.53865 
-9.81549 -9.97646 -10.0421 -9.98422 -9.91876 -9.74785 -9.84883 -9.93438 -9.92337 
-10.2201 -9.97669 -9.99235 -10.3605 -10.2379 -10.3305 -10.2318 -10.3879 -10.0029 
-9.81722 -9.99008 -9.98297 -10.0375 -10.1809 -9.97796 -10.1608 -10.0934 -10.1298 
-10.0866 -9.93379 -9.71649 -9.47222 -9.54834 -10.0511 -10.3517 -10.442 -10.1617 
-10.0143 -10.1787 -10.3141 -10.2669 -10.3002 -10.2334 -10.3418 -10.3783 -10.2454 
-10.2937 -10.3554 -10.4865 -10.3056 -10.0615 -10.0796 -10.1996 -10.0831 -10.3105 
-10.3044 -10.2942 -10.2934 -10.1901 -10.0847 -10.2759 -9.94773 -9.85966 -9.83833 
-9.71384 -10.1257 -10.2368 -10.2759 -10.2029 -10.2849 -10.3174 -9.47149 -9.51017 
-10.4064 -10.4299 -10.1996 -10.3293 -10.3885 -10.1415 -10.2119 -9.47887 -9.74237 
-9.64734 -9.61186 -10.2651 -9.994 -10.0914 -10.0507 -10.2753 -10.4684 -10.0346 
-9.95362 -10.0188 -9.61004 -9.8969 -9.81138 -9.93302 -9.59952 -10.4213 -10.1523 
-10.0395 -10.176 -10.2451 -9.56324 -9.60085 -9.48892 -9.86233 -9.74497 -9.62961 
-10.3906 -10.3848 -10.104 -10.2865 -10.3495 -10.2112 -10.3904 -10.3965 -10.1633 
-9.64114 -9.82704 -9.75608 -9.95764 -9.71381 -9.721 -9.4545 -10.0807 -10.1475 
-10.155 -10.2891 -10.2718 -10.4342 -10.3422 -10.4571 -10.0274 -9.60963 -9.72328 
-9.59189 -9.91921 -9.82589 -9.82765 -9.62173 -9.63912 -9.75716 -9.65309 -10.3616 
-10.2666 -10.2951 -9.67831 -9.69232 -9.97215 -10.1319 -10.1138 -10.2321 -10.2401 
-10.1103 -10.1658 -10.329 -10.3173 -10.4181 -10.1213 -10.2255 -10.1841 -10.2949 
-10.3239 -10.2533 -10.256 -10.3532 -10.3299 -10.1883 -10.3374 -9.51677 -9.96367 
-9.58111 -9.72398 -9.6707 -9.59473 -9.79959 -9.7174 -9.86618 -9.68931 -9.7323 
-9.70699 -9.61981 -9.63845 -9.53184 -9.45831 -9.67011 -9.56166 -9.58325 -10.3492 
-10.2622 -10.3259 -10.4646 -10.3969 -10.4419 -10.4629 -10.4338 -10.3543 -10.2683 
-10.0325 -10.0632 -10.0204 -10.1666 -10.2676 -10.2361 -10.1431 -10.1137 -10.2152 
-10.1181 -10.2193 -10.1684 -10.4557 -9.78705 -9.76806 -9.47818 -9.45542 -9.49298 
-9.57134 -10.4812 -10.4537 -9.61129 -9.64444 -9.68116 -9.60626 -9.76355 -9.87117 
-9.9591 -9.88191 -9.93252 -9.59086 -9.68247 -10.4836 -10.4381 -9.4625 -9.4856 
-10.0019 -9.93853 -9.92073 -10.0692 -9.94164 -10.0122 -10.0246 -9.73812 -9.84516 
-9.87427 -9.75148 -9.86761 -10.4507 -9.61508 -9.55812 -9.46762 -9.47291 -9.76331 
-9.95341 -10.0172 -9.99448 -9.79951 -9.89792 -9.93658 -9.87078 -9.69679 -9.62768 
-9.75415 -10.0203 -10.2177 -10.1185 -9.85764 -9.99092 -9.85391 -10.0123 -9.99168 
-9.70775 -9.89762 -9.88905 -9.57969 -9.65098 -9.79303 -9.58228 -9.80356 -9.84653 
-9.70276 -9.74159 -9.72104 -9.98537 -10.1322 -10.0935 -10.2336 -10.2815 -10.132 
-10.2972 -10.3036 -10.291 -9.84379 -9.96153 -9.75983 -9.90356 -9.99642 -10.1376 
-9.89761 -9.90867 -9.96759 -10.1808 -9.90827 -10.0478 -10.0891 -10.0691 -10.2269 
-10.1229 -10.3438 -10.1679 -10.2032 -10.1455 -10.117 -10.1992 -9.46689 -9.70504 
-9.79548 -9.86437 -10.4626 -9.68831 -9.61691 -9.72873 -9.64506 -9.45941 -9.56042 
-9.63607 -9.69842 -9.73264 -9.52815 -9.56023 -9.49025 -9.46849 -10.2054 -10.3459 
-10.189 -10.2749 -10.3505 -10.1384 -10.3693 -9.86235 -9.89346 -10.1416 -10 
-9.9953 -10.0818 -9.79879 -9.77759 -10.0043 -9.89638 -10.0368 -9.8274 -9.86989 
-9.7429 -10.2367 -10.2944 -10.2936 -10.1606 -10.1237 -10.0786 -10.1362 -10.1442 
-10.183 -10.4879 -10.1038 -10.3393 -10.3075 -10.3322 -10.1811 -10.3534 -10.0562 
-10.1467 -10.1024 -10.1414 -10.2121 -10.2896 -10.3005 -10.2948 -10.3563 -10.0981 
-10.0467 -9.90689 -10.0969 -10.1331 -10.2753 -10.4476 -9.46508 -10.287 -9.45495 
-9.49893 -9.69405 -9.6057 -9.8403 -9.88882 -9.84117 -9.80076 -9.92017 -10.2917 
-10.4486 -10.2274 -10.1877 -10.3404 -10.3278 -10.2654 -10.3861 -10.0532 -10.2241 
-10.1029 -10.2578 -10.2682 -10.1944 -10.1351 -10.0163 -9.97913 -9.73638 -9.61413 
-9.61675 -9.75899 -9.66971 -9.60663 -9.63708 -9.45912 -9.50397 -9.48626 -10.235 
-10.3125 -10.1835 -10.1954 -10.269 -10.4195 -10.1432 -9.89547 -9.89164 -9.81714 
-9.56941 -9.64504 -9.70476 -9.6207 -9.65176 -9.66636 -9.6029 -9.63033 -9.50949 
-9.8962 -9.80092 -9.78503 -9.73342 -9.67212 -9.89256 -10.0077 -10.1777 -10.0491 
-9.76399 -9.53383 -9.59371 -9.69053 -9.97498 -9.93514 -10.0046 -9.90528 -9.83152 
-9.51297 -9.56028 -9.73016 -9.7795 -9.5969 -9.64348 -9.66611 -9.5867 -9.61043 
-9.4899 -10.427 -9.89184 -9.68563 -9.73911 -9.85036 -9.77295 -10.0902 -10.3557 
-10.1927 -10.1008 -9.8908 -9.98347 -9.75993 -10.2669 -10.3314 -10.1492 -10.1043 
-10.2651 -10.2127 -10.2505 -9.8527 -9.97991 -9.92044 -9.92237 -9.60649 -10.4068 
-9.97274 -10.2083 -10.2928 -10.1501 -10.265 -10.2641 -10.2598 -9.90594 -9.69247 
-9.73146 -9.69364 -10.3052 -10.4646 -9.69006 -9.65477 -9.72711 -9.56166 -9.74196 
-9.65354 -10.255 -10.1299 -9.5752 -9.47878 -9.67955 -9.65022 -9.62892 -9.74209 
-9.61541 -9.49109 -10.001 -9.86232 -9.8219 -9.56679 -9.50018 -9.49136 -10.0471 
-9.98483 -9.62683 -9.60873 -9.78025 -9.52173 -9.50556 -9.61419 -9.77119 -9.69993 
-9.79483 -9.84295 -9.57189 -9.71766 -9.64686 -9.60094 -9.87194 -10.025 -9.94292 
-9.6439 -9.62208 -9.71353 -9.84657 -9.74163 -9.80608 -9.81744 -9.80968 -10.1844 
-9.9083 -9.89072 -9.82482 -9.5721 -9.4878 -9.90572 -9.94109 -9.94647 -9.47593 
-9.72291 -9.63219 -9.61759 -9.79592 -9.51149 -10.4873 -10.4645 -10.447 -10.4675 